
                                 *****************
                                 * O   R   C   A *
                                 *****************

                                            #,                                       
                                            ###                                      
                                            ####                                     
                                            #####                                    
                                            ######                                   
                                           ########,                                 
                                     ,,################,,,,,                         
                               ,,#################################,,                 
                          ,,##########################################,,             
                       ,#########################################, ''#####,          
                    ,#############################################,,   '####,        
                  ,##################################################,,,,####,       
                ,###########''''           ''''###############################       
              ,#####''   ,,,,##########,,,,          '''####'''          '####       
            ,##' ,,,,###########################,,,                        '##       
           ' ,,###''''                  '''############,,,                           
         ,,##''                                '''############,,,,        ,,,,,,###''
      ,#''                                            '''#######################'''  
     '                                                          ''''####''''         
             ,#######,   #######,   ,#######,      ##                                
            ,#'     '#,  ##    ##  ,#'     '#,    #''#        ######   ,####,        
            ##       ##  ##   ,#'  ##            #'  '#       #        #'  '#        
            ##       ##  #######   ##           ,######,      #####,   #    #        
            '#,     ,#'  ##    ##  '#,     ,#' ,#      #,         ##   #,  ,#        
             '#######'   ##     ##  '#######'  #'      '#     #####' # '####'        



                  #######################################################
                  #                        -***-                        #
                  #          Department of theory and spectroscopy      #
                  #    Directorship and core code : Frank Neese         #
                  #        Max Planck Institute fuer Kohlenforschung    #
                  #                Kaiser Wilhelm Platz 1               #
                  #                 D-45470 Muelheim/Ruhr               #
                  #                      Germany                        #
                  #                                                     #
                  #                  All rights reserved                #
                  #                        -***-                        #
                  #######################################################


                         Program Version 5.0.3 -  RELEASE  -


 With contributions from (in alphabetic order):
   Daniel Aravena         : Magnetic Suceptibility
   Michael Atanasov       : Ab Initio Ligand Field Theory (pilot matlab implementation)
   Alexander A. Auer      : GIAO ZORA, VPT2 properties, NMR spectrum
   Ute Becker             : Parallelization
   Giovanni Bistoni       : ED, misc. LED, open-shell LED, HFLD
   Martin Brehm           : Molecular dynamics
   Dmytro Bykov           : SCF Hessian
   Vijay G. Chilkuri      : MRCI spin determinant printing, contributions to CSF-ICE
   Dipayan Datta          : RHF DLPNO-CCSD density
   Achintya Kumar Dutta   : EOM-CC, STEOM-CC
   Dmitry Ganyushin       : Spin-Orbit,Spin-Spin,Magnetic field MRCI
   Miquel Garcia          : C-PCM and meta-GGA Hessian, CC/C-PCM, Gaussian charge scheme
   Yang Guo               : DLPNO-NEVPT2, F12-NEVPT2, CIM, IAO-localization
   Andreas Hansen         : Spin unrestricted coupled pair/coupled cluster methods
   Benjamin Helmich-Paris : MC-RPA, TRAH-SCF, COSX integrals
   Lee Huntington         : MR-EOM, pCC
   Robert Izsak           : Overlap fitted RIJCOSX, COSX-SCS-MP3, EOM
   Marcus Kettner         : VPT2
   Christian Kollmar      : KDIIS, OOCD, Brueckner-CCSD(T), CCSD density, CASPT2, CASPT2-K
   Simone Kossmann        : Meta GGA functionals, TD-DFT gradient, OOMP2, MP2 Hessian
   Martin Krupicka        : Initial AUTO-CI
   Lucas Lang             : DCDCAS
   Marvin Lechner         : AUTO-CI (C++ implementation), FIC-MRCC
   Dagmar Lenk            : GEPOL surface, SMD
   Dimitrios Liakos       : Extrapolation schemes; Compound Job, initial MDCI parallelization
   Dimitrios Manganas     : Further ROCIS development; embedding schemes
   Dimitrios Pantazis     : SARC Basis sets
   Anastasios Papadopoulos: AUTO-CI, single reference methods and gradients
   Taras Petrenko         : DFT Hessian,TD-DFT gradient, ASA, ECA, R-Raman, ABS, FL, XAS/XES, NRVS
   Peter Pinski           : DLPNO-MP2, DLPNO-MP2 Gradient
   Christoph Reimann      : Effective Core Potentials
   Marius Retegan         : Local ZFS, SOC
   Christoph Riplinger    : Optimizer, TS searches, QM/MM, DLPNO-CCSD(T), (RO)-DLPNO pert. Triples
   Tobias Risthaus        : Range-separated hybrids, TD-DFT gradient, RPA, STAB
   Michael Roemelt        : Original ROCIS implementation
   Masaaki Saitow         : Open-shell DLPNO-CCSD energy and density
   Barbara Sandhoefer     : DKH picture change effects
   Avijit Sen             : IP-ROCIS
   Kantharuban Sivalingam : CASSCF convergence, NEVPT2, FIC-MRCI
   Bernardo de Souza      : ESD, SOC TD-DFT
   Georgi Stoychev        : AutoAux, RI-MP2 NMR, DLPNO-MP2 response
   Willem Van den Heuvel  : Paramagnetic NMR
   Boris Wezisla          : Elementary symmetry handling
   Frank Wennmohs         : Technical directorship


 We gratefully acknowledge several colleagues who have allowed us to
 interface, adapt or use parts of their codes:
   Stefan Grimme, W. Hujo, H. Kruse, P. Pracht,  : VdW corrections, initial TS optimization,
                  C. Bannwarth, S. Ehlert          DFT functionals, gCP, sTDA/sTD-DF
   Ed Valeev, F. Pavosevic, A. Kumar             : LibInt (2-el integral package), F12 methods
   Garnet Chan, S. Sharma, J. Yang, R. Olivares  : DMRG
   Ulf Ekstrom                                   : XCFun DFT Library
   Mihaly Kallay                                 : mrcc  (arbitrary order and MRCC methods)
   Jiri Pittner, Ondrej Demel                    : Mk-CCSD
   Frank Weinhold                                : gennbo (NPA and NBO analysis)
   Christopher J. Cramer and Donald G. Truhlar   : smd solvation model
   Lars Goerigk                                  : TD-DFT with DH, B97 family of functionals
   V. Asgeirsson, H. Jonsson                     : NEB implementation
   FAccTs GmbH                                   : IRC, NEB, NEB-TS, DLPNO-Multilevel, CI-OPT
                                                   MM, QMMM, 2- and 3-layer-ONIOM, Crystal-QMMM,
                                                   LR-CPCM, SF, NACMEs, symmetry and pop. for TD-DFT,
                                                   nearIR, NL-DFT gradient (VV10), updates on ESD,
                                                   ML-optimized integration grids
   S Lehtola, MJT Oliveira, MAL Marques          : LibXC Library
   Liviu Ungur et al                             : ANISO software


 Your calculation uses the libint2 library for the computation of 2-el integrals
 For citations please refer to: http://libint.valeyev.net

 Your ORCA version has been built with support for libXC version: 5.1.0
 For citations please refer to: https://tddft.org/programs/libxc/

 This ORCA versions uses:
   CBLAS   interface :  Fast vector & matrix operations
   LAPACKE interface :  Fast linear algebra routines
   SCALAPACK package :  Parallel linear algebra routines
   Shared memory     :  Shared parallel matrices




***************************************
The coordinates will be read from file: coords.xyz
***************************************


================================================================================

----- Orbital basis set information -----
Your calculation utilizes the basis: def2-SVP
   F. Weigend and R. Ahlrichs, Phys. Chem. Chem. Phys. 7, 3297 (2005).

================================================================================
                                        WARNINGS
                       Please study these warnings very carefully!
================================================================================

WARNING: Old DensityContainer found on disk!
         Will remove this file - 
         If you want to keep old densities, please start your calculation with a different basename. 


INFO   : the flag for use of the SHARK integral package has been found!

================================================================================
                                       INPUT FILE
================================================================================
NAME = s0t1mecp_c2twisttropolone.inp
|  1> !PAL4 def2-SVP moread SurfCrossOpt
|  2> 
|  3> %moinp "stwf/casscf.gbw"
|  4> 
|  5> %casscf
|  6> nel 6
|  7> norb 6
|  8> mult 1
|  9> #nroots 1,1
| 10> weights[0]=1
| 11> #weights[1]=1
| 12> maxiter 500
| 13> OrbStep NR
| 14> end
| 15> 
| 16> %mecp 
| 17> 	mult 3 
| 18> 	casscf_nel 6
| 19> 	casscf_norb 6
| 20>  	casscf_mult 3
| 21> 	#casscf_nroots 1,1
| 22> 	#casscf_weights[0] = 1
| 23> 	#casscf_weights[1] = 1
| 24> 	moinp "stwf/casscf.gbw"
| 25> end
| 26> 
| 27> *xyzfile 0 1 coords.xyz
| 28> 
| 29>                          ****END OF INPUT****
================================================================================

                       *********************************
                       * Surface Crossing Optimization *
                       *********************************

Geometry optimization settings:
Update method            Update   .... BFGS
Choice of coordinates    CoordSys .... Z-matrix Internals
Initial Hessian          InHess   .... Almoef's Model

Convergence Tolerances:
Energy Change            TolE     ....  5.0000e-06 Eh
Max. Gradient            TolMAXG  ....  3.0000e-04 Eh/bohr
RMS Gradient             TolRMSG  ....  1.0000e-04 Eh/bohr
Max. Displacement        TolMAXD  ....  4.0000e-03 bohr
RMS Displacement         TolRMSD  ....  2.0000e-03 bohr
Strict Convergence                ....  False
------------------------------------------------------------------------------
                        ORCA OPTIMIZATION COORDINATE SETUP
------------------------------------------------------------------------------

The optimization will be done in new redundant internal coordinates
Making redundant internal coordinates   ...  (new redundants) done
Evaluating the initial hessian          ...  (Almloef) done
Evaluating the coordinates              ...  done
Calculating the B-matrix                .... done
Calculating the G-matrix                .... done
Diagonalizing the G-matrix              .... done
The first mode is                       ....   28
The number of degrees of freedom        ....   39

    -----------------------------------------------------------------
                    Redundant Internal Coordinates


    -----------------------------------------------------------------
         Definition                    Initial Value    Approx d2E/dq
    -----------------------------------------------------------------
      1. B(C   1,C   0)                  1.4663         0.472103   
      2. B(C   2,C   1)                  1.3413         0.747108   
      3. B(C   3,C   0)                  1.3914         0.621614   
      4. B(C   4,C   2)                  1.4555         0.491139   
      5. B(C   5,C   3)                  1.4190         0.561693   
      6. B(C   6,C   5)                  1.3787         0.651199   
      7. B(C   6,C   4)                  1.5083         0.404510   
      8. B(H   7,C   0)                  1.0843         0.367663   
      9. B(H   8,C   1)                  1.0860         0.365443   
     10. B(H   9,C   2)                  1.0809         0.372289   
     11. B(H  10,C   3)                  1.0857         0.365840   
     12. B(H  11,C   5)                  1.0812         0.371923   
     13. B(O  12,C   6)                  1.2247         1.026885   
     14. B(O  13,C   4)                  1.2742         0.856167   
     15. B(H  14,O  13)                  0.9538         0.531926   
     16. A(C   1,C   0,H   7)          114.4011         0.338292   
     17. A(C   1,C   0,C   3)          129.6480         0.413616   
     18. A(C   3,C   0,H   7)          115.4110         0.354309   
     19. A(C   0,C   1,H   8)          117.6076         0.337951   
     20. A(C   2,C   1,H   8)          120.8150         0.365206   
     21. A(C   0,C   1,C   2)          121.5049         0.427412   
     22. A(C   1,C   2,H   9)          128.3382         0.366369   
     23. A(C   1,C   2,C   4)          107.4117         0.430453   
     24. A(C   4,C   2,H   9)          124.0179         0.341246   
     25. A(C   5,C   3,H  10)          116.5879         0.348000   
     26. A(C   0,C   3,H  10)          114.9723         0.354011   
     27. A(C   0,C   3,C   5)          128.4369         0.426637   
     28. A(C   2,C   4,C   6)          119.7397         0.386182   
     29. A(C   6,C   4,O  13)          120.0041         0.423242   
     30. A(C   2,C   4,O  13)          119.8998         0.438250   
     31. A(C   3,C   5,C   6)          119.9128         0.430209   
     32. A(C   6,C   5,H  11)          119.3872         0.357816   
     33. A(C   3,C   5,H  11)          120.6994         0.348969   
     34. A(C   4,C   6,C   5)          113.3825         0.405775   
     35. A(C   5,C   6,O  12)          134.7917         0.476915   
     36. A(C   4,C   6,O  12)          111.7192         0.437284   
     37. A(C   4,O  13,H  14)          111.0324         0.392982   
     38. D(C   2,C   1,C   0,C   3)     37.9474         0.015176   
     39. D(H   8,C   1,C   0,C   3)   -145.1250         0.015176   
     40. D(C   2,C   1,C   0,H   7)   -150.9784         0.015176   
     41. D(H   8,C   1,C   0,H   7)     25.9492         0.015176   
     42. D(C   4,C   2,C   1,H   8)   -166.2964         0.039777   
     43. D(H   9,C   2,C   1,C   0)   -174.8929         0.039777   
     44. D(H   9,C   2,C   1,H   8)      8.2773         0.039777   
     45. D(C   4,C   2,C   1,C   0)     10.5334         0.039777   
     46. D(H  10,C   3,C   0,H   7)     -5.5162         0.026747   
     47. D(H  10,C   3,C   0,C   1)    165.4840         0.026747   
     48. D(C   5,C   3,C   0,H   7)    175.1203         0.026747   
     49. D(C   5,C   3,C   0,C   1)    -13.8795         0.026747   
     50. D(O  13,C   4,C   2,C   1)    101.5639         0.016425   
     51. D(C   6,C   4,C   2,H   9)     99.8455         0.016425   
     52. D(C   6,C   4,C   2,C   1)    -85.2887         0.016425   
     53. D(O  13,C   4,C   2,H   9)    -73.3020         0.016425   
     54. D(H  11,C   5,C   3,H  10)    -24.3330         0.021616   
     55. D(H  11,C   5,C   3,C   0)    155.0218         0.021616   
     56. D(C   6,C   5,C   3,H  10)    155.9642         0.021616   
     57. D(C   6,C   5,C   3,C   0)    -24.6810         0.021616   
     58. D(O  12,C   6,C   5,H  11)     -6.0929         0.029534   
     59. D(C   4,C   6,C   5,H  11)    178.0798         0.029534   
     60. D(C   4,C   6,C   5,C   3)     -2.2135         0.029534   
     61. D(O  12,C   6,C   4,O  13)     75.6585         0.011237   
     62. D(O  12,C   6,C   4,C   2)    -97.4817         0.011237   
     63. D(O  12,C   6,C   5,C   3)    173.6138         0.029534   
     64. D(C   5,C   6,C   4,O  13)   -107.5278         0.011237   
     65. D(C   5,C   6,C   4,C   2)     79.3319         0.011237   
     66. D(H  14,O  13,C   4,C   6)      8.3914         0.057459   
     67. D(H  14,O  13,C   4,C   2)   -178.4795         0.057459   
    -----------------------------------------------------------------

Number of atoms                         .... 15
Number of degrees of freedom            .... 67

         *************************************************************
         *                GEOMETRY OPTIMIZATION CYCLE   1            *
         *************************************************************
         *************************************************************
         *              Energy and Gradient with M =  1              *
         *************************************************************
---------------------------------
CARTESIAN COORDINATES (ANGSTROEM)
---------------------------------
  C      1.492680   -0.097760   -0.411140
  C      1.075760   -1.321360    0.280930
  C     -0.210870   -1.553270    0.580890
  C      1.023010    1.204600   -0.272450
  C     -1.007320   -0.552720   -0.114170
  C     -0.156830    1.652440    0.376340
  C     -1.229720    0.798290    0.518610
  H      2.382040   -0.209150   -1.021410
  H      1.839970   -2.061510    0.498960
  H     -0.629880   -2.371810    1.149090
  H      1.654840    1.969170   -0.713990
  H     -0.224130    2.658420    0.766830
  O     -2.307830    0.855990    1.096850
  O     -1.620210   -0.862250   -1.187600
  H     -2.081520   -0.109100   -1.547740

----------------------------
CARTESIAN COORDINATES (A.U.)
----------------------------
  NO LB      ZA    FRAG     MASS         X           Y           Z
   0 C     6.0000    0    12.011    2.820756   -0.184740   -0.776942
   1 C     6.0000    0    12.011    2.032892   -2.497009    0.530881
   2 C     6.0000    0    12.011   -0.398487   -2.935255    1.097723
   3 C     6.0000    0    12.011    1.933209    2.276364   -0.514856
   4 C     6.0000    0    12.011   -1.903559   -1.044489   -0.215750
   5 C     6.0000    0    12.011   -0.296366    3.122659    0.711180
   6 C     6.0000    0    12.011   -2.323834    1.508549    0.980031
   7 H     1.0000    0     1.008    4.501403   -0.395236   -1.930185
   8 H     1.0000    0     1.008    3.477039   -3.895689    0.942898
   9 H     1.0000    0     1.008   -1.190301   -4.482071    2.171465
  10 H     1.0000    0     1.008    3.127194    3.721192   -1.349246
  11 H     1.0000    0     1.008   -0.423544    5.023686    1.449099
  12 O     8.0000    0    15.999   -4.361167    1.617587    2.072746
  13 O     8.0000    0    15.999   -3.061753   -1.629416   -2.244239
  14 H     1.0000    0     1.008   -3.933503   -0.206169   -2.924805

--------------------------------
INTERNAL COORDINATES (ANGSTROEM)
--------------------------------
 C      0   0   0     0.000000000000     0.00000000     0.00000000
 C      1   0   0     1.466281054675     0.00000000     0.00000000
 C      2   1   0     1.341333294375   121.50494870     0.00000000
 C      1   2   3     1.391390094330   129.64802148    37.94742451
 C      3   2   1     1.455520974978   107.41168067    10.53338291
 C      4   1   2     1.418982577518   128.43691930   346.12048640
 C      6   4   1     1.378733450490   119.91278992   335.31900721
 H      1   2   3     1.084342388086   114.40114947   209.02157976
 H      2   1   3     1.085990804519   117.60761179   176.92757480
 H      3   2   1     1.080938643818   128.33821540   185.10709265
 H      4   1   2     1.085695171492   114.97232724   165.48399136
 H      6   4   1     1.081206497622   120.69937663   155.02180492
 O      7   6   4     1.224749753909   134.79174834   173.61383580
 O      5   3   2     1.274242888110   119.89983605   101.56388104
 H     14   5   3     0.953804308126   111.03243209   181.52054861

---------------------------
INTERNAL COORDINATES (A.U.)
---------------------------
 C      0   0   0     0.000000000000     0.00000000     0.00000000
 C      1   0   0     2.770869628694     0.00000000     0.00000000
 C      2   1   0     2.534752580680   121.50494870     0.00000000
 C      1   2   3     2.629346223735   129.64802148    37.94742451
 C      3   2   1     2.750536024886   107.41168067    10.53338291
 C      4   1   2     2.681488460315   128.43691930   346.12048640
 C      6   4   1     2.605428633102   119.91278992   335.31900721
 H      1   2   3     2.049110148885   114.40114947   209.02157976
 H      2   1   3     2.052225204498   117.60761179   176.92757480
 H      3   2   1     2.042678004389   128.33821540   185.10709265
 H      4   1   2     2.051666539040   114.97232724   165.48399136
 H      6   4   1     2.043184174722   120.69937663   155.02180492
 O      7   6   4     2.314441617475   134.79174834   173.61383580
 O      5   3   2     2.407970086626   119.89983605   101.56388104
 H     14   5   3     1.802428927713   111.03243209   181.52054861

---------------------
BASIS SET INFORMATION
---------------------
There are 3 groups of distinct atoms

 Group   1 Type C   : 7s4p1d contracted to 3s2p1d pattern {511/31/1}
 Group   2 Type H   : 4s1p contracted to 2s1p pattern {31/1}
 Group   3 Type O   : 7s4p1d contracted to 3s2p1d pattern {511/31/1}

Atom   0C    basis set group =>   1
Atom   1C    basis set group =>   1
Atom   2C    basis set group =>   1
Atom   3C    basis set group =>   1
Atom   4C    basis set group =>   1
Atom   5C    basis set group =>   1
Atom   6C    basis set group =>   1
Atom   7H    basis set group =>   2
Atom   8H    basis set group =>   2
Atom   9H    basis set group =>   2
Atom  10H    basis set group =>   2
Atom  11H    basis set group =>   2
Atom  12O    basis set group =>   3
Atom  13O    basis set group =>   3
Atom  14H    basis set group =>   2


           ************************************************************
           *        Program running with 4 parallel MPI-processes     *
           *              working on a common directory               *
           ************************************************************
------------------------------------------------------------------------------
                           ORCA GTO INTEGRAL CALCULATION
------------------------------------------------------------------------------
------------------------------------------------------------------------------
                   ___                                                        
                  /   \      - P O W E R E D   B Y -                         
                 /     \                                                     
                 |  |  |   _    _      __       _____    __    __             
                 |  |  |  | |  | |    /  \     |  _  \  |  |  /  |          
                  \  \/   | |  | |   /    \    | | | |  |  | /  /          
                 / \  \   | |__| |  /  /\  \   | |_| |  |  |/  /          
                |  |  |   |  __  | /  /__\  \  |    /   |      \           
                |  |  |   | |  | | |   __   |  |    \   |  |\   \          
                \     /   | |  | | |  |  |  |  | |\  \  |  | \   \       
                 \___/    |_|  |_| |__|  |__|  |_| \__\ |__|  \__/        
                                                                              
                      - O R C A' S   B I G   F R I E N D -                    
                                      &                                       
                       - I N T E G R A L  F E E D E R -                       
                                                                              
 v1 FN, 2020, v2 2021                                                         
------------------------------------------------------------------------------


Reading SHARK input file s0t1mecp_c2twisttropolone.SHARKINP.tmp ... ok
----------------------
SHARK INTEGRAL PACKAGE
----------------------

Number of atoms                             ...     15
Number of basis functions                   ...    156
Number of shells                            ...     72
Maximum angular momentum                    ...      2
Integral batch strategy                     ... SHARK/LIBINT Hybrid
RI-J (if used) integral strategy            ... SPLIT-RIJ (Revised 2003 algorithm where possible)
Printlevel                                  ...      1
Contraction scheme used                     ... SEGMENTED contraction
Coulomb Range Separation                    ... NOT USED
Exchange Range Separation                   ... NOT USED
Finite Nucleus Model                        ... NOT USED
Auxiliary Coulomb fitting basis             ... NOT available
Auxiliary J/K fitting basis                 ... NOT available
Auxiliary Correlation fitting basis         ... NOT available
Auxiliary 'external' fitting basis          ... NOT available
Integral threshold                          ...     2.500000e-11
Primitive cut-off                           ...     2.500000e-12
Primitive pair pre-selection threshold      ...     2.500000e-12

Calculating pre-screening integrals         ... done (  0.0 sec) Dimension = 72
Organizing shell pair data                  ... done (  0.0 sec)
Shell pair information
Total number of shell pairs                 ...      2628
Shell pairs after pre-screening             ...      2519
Total number of primitive shell pairs       ...      9726
Primitive shell pairs kept                  ...      6869
          la=0 lb=0:    742 shell pairs
          la=1 lb=0:    893 shell pairs
          la=1 lb=1:    292 shell pairs
          la=2 lb=0:    335 shell pairs
          la=2 lb=1:    212 shell pairs
          la=2 lb=2:     45 shell pairs

Calculating one electron integrals          ... done (  0.0 sec)
Calculating Nuclear repulsion               ... done (  0.0 sec) ENN=    419.207298867885 Eh

SHARK setup successfully completed in   0.1 seconds

Maximum memory used throughout the entire GTOINT-calculation: 8.8 MB


           ************************************************************
           *        Program running with 4 parallel MPI-processes     *
           *              working on a common directory               *
           ************************************************************
-------------------------------------------------------------------------------
                                 ORCA SCF
-------------------------------------------------------------------------------

------------
SCF SETTINGS
------------
Hamiltonian:
 Ab initio Hamiltonian  Method          .... Hartree-Fock(GTOs)


General Settings:
 Integral files         IntName         .... s0t1mecp_c2twisttropolone
 Hartree-Fock type      HFTyp           .... CASSCF
 Total Charge           Charge          ....    0
 Multiplicity           Mult            ....    1
 Number of Electrons    NEL             ....   64
 Basis Dimension        Dim             ....  156
 Nuclear Repulsion      ENuc            ....    419.2072988679 Eh


Diagonalization of the overlap matrix:
Smallest eigenvalue                        ... 6.311e-04
Time for diagonalization                   ...    0.003 sec
Threshold for overlap eigenvalues          ... 1.000e-08
Number of eigenvalues below threshold      ... 0
Time for construction of square roots      ...    0.002 sec
Total time needed                          ...    0.007 sec

---------------------
INITIAL GUESS: MOREAD
---------------------
Guess MOs are being read from file: stwf/casscf.gbw
Input Geometry matches current geometry (good)
Input basis set matches current basis set (good)
MOs were renormalized
Gram-Schmidt orthogonalization of all MOs with pivot on actives
                      ------------------
                      INITIAL GUESS DONE (   0.0 sec)
                      ------------------


 ... the calculation is a CASSCF calculation -I'm leaving here GOOD LUCK!!!



           ************************************************************
           *        Program running with 4 parallel MPI-processes     *
           *              working on a common directory               *
           ************************************************************
-------------------------------------------------------------------------------
                              ORCA-CASSCF
-------------------------------------------------------------------------------

Setting up the integral package       ... done
Building the CAS space                ... done (141 configurations for Mult=1)

SYSTEM-SPECIFIC SETTINGS:
Number of active electrons          ...    6
Number of active orbitals           ...    6
Total number of electrons           ...   64
Total number of orbitals            ...  156

Determined orbital ranges:
   Internal       0 -   28 (  29 orbitals)
   Active        29 -   34 (   6 orbitals)
   External      35 -  155 ( 121 orbitals)
Number of rotation parameters      ...   4409

CI-STEP:
CI strategy                         ... General CI
Number of multiplicity blocks       ...    1
BLOCK  1 WEIGHT=   1.0000
  Multiplicity                      ...    1
  #(Configurations)                 ...  141
  #(CSFs)                           ...  175
  #(Roots)                          ...    1
    ROOT=0 WEIGHT=    1.000000

  PrintLevel                        ...    1
  N(GuessMat)                       ...       512
  MaxDim(CI)                        ...        10
  MaxIter(CI)                       ...        64
  Energy Tolerance CI               ...  2.50e-09
  Residual Tolerance CI             ...  2.50e-09
  Shift(CI)                         ...  1.00e-04

INTEGRAL-TRANSFORMATION-STEP:
  Algorithm                         ... EXACT

ORBITAL-IMPROVEMENT-STEP:
  Algorithm                         ... NR
  Default Parametrization           ... CAYLEY
  Act-Act rotations                 ... depends on algorithm used
  FreezeIE                          ... 95.00% of ||g||
  Until reaching FreezeIE rotations with active orbitals are damped. 

  Approx. Fock at                   ... 1.000000e-02 density convergence
  Level shift                       ... energy gap dependent. Minimum=0.600

  Note: SuperCI(PT) will ignore FreezeIE, FreezeAct and FreezeGrad. In general Default settings are encouraged.
        In conjunction with ShiftUp, ShiftDn or GradScaling the performance of SuperCI(PT) is less optimal.  

  Switch step at gradient           ...  3.00e-02 
  Switch step at iteration          ...        50   
  Switch step to                    ... SuperCI(PT)    

  Newton-Raphson/Augmented Hessian solver details:
  Solver                            ... 0
  Tol                               ... 1.0e-06
  Max. no of iterations             ... 35
  PrintLevel                        ... 1
  N(GuessMat)                       ... 512
  ExactDiagSwitch                   ... 512
  Diagonal Hessian Shift            ... 0.000e+00
  Secular equation safety shift     ... 1.000e-04
  Denominator shift in update       ... 1.000e-04
  Cutoff for Hessian matrix storage ... 2.500e-11
  Max. memory for integral trafo    ... 1024
  Max. no of expansion vectors      ... 35
  Max. DIIS vectors                 ... 12
  Preconditioner                    ... CASSCF-FOCKIAN
  SubMatrix initial guess+update    ... ON


SCF-SETTINGS:
  Incremental                       ... on
  RIJCOSX approximation             ... off
  RI-JK approximation               ... off
  AO integral handling              ... DIRECT
  Integral Neglect Thresh           ...  2.50e-11
  Primitive cutoff TCut             ...  2.50e-12
  Energy convergence tolerance      ...  2.50e-08
  Orbital gradient convergence      ...  2.50e-04
  Max. number of iterations         ...       500  


FINAL ORBITALS:
  Active   Orbitals                 ... natural 
  Internal Orbitals                 ... canonical 
  External Orbitals                 ... canonical 

------------------
CAS-SCF ITERATIONS
------------------


MACRO-ITERATION   1: 
   --- Canonicalize Internal Space
   --- Canonicalize External Space
   --- Inactive Energy E0 = -411.71362033 Eh
CI-ITERATION   0: 
  -417.862687962   0.000000000000 (    0.00)
   CI-PROBLEM SOLVED
   DENSITIES MADE

                 <<<<<<<<<<<<<<<<<<INITIAL CI STATE CHECK>>>>>>>>>>>>>>>>>>

BLOCK  1 MULT= 1 NROOTS= 1 
ROOT   0:  E=    -417.8626879616 Eh
      0.92488 [     0]: 222000
      0.02185 [    29]: 202020
      0.00751 [   101]: 022002
      0.00665 [     9]: 220002
      0.00372 [    50]: 121101
      0.00342 [    16]: 211020
      0.00292 [    30]: 202011
      0.00288 [   100]: 022011
      0.00270 [    53]: 121002
      0.00266 [    27]: 202110

                 <<<<<<<<<<<<<<<<<<INITIAL CI STATE CHECK>>>>>>>>>>>>>>>>>>

   E(CAS)=  -417.862687962 Eh DE=    0.000000e+00
   --- Energy gap subspaces: Ext-Act = 0.142   Act-Int = 0.062
   --- current l-shift: Up(Ext-Act) = 1.46   Dn(Act-Int) = 1.54
   N(occ)=  1.96203 1.92953 1.95938 0.01491 0.07801 0.05614
   ||g|| =     4.204775e-01 Max(G)=   -9.218074e-02 Rot=35,13
   --- Orbital Update [        NR]
   AUGHESS-ITER   0: E=    -0.010035388 <r|r>= 1.13216871e-01
   AUGHESS-ITER   1: E=    -0.025173832 <r|r>= 6.11712416e-03
   AUGHESS-ITER   2: E=    -0.028389798 <r|r>= 1.85311792e-03
   AUGHESS-ITER   3: E=    -0.028807908 <r|r>= 3.96992129e-04
   AUGHESS-ITER   4: E=    -0.028889048 <r|r>= 6.06357276e-05
   AUGHESS-ITER   5: E=    -0.028904472 <r|r>= 1.19204699e-05
   AUGHESS-ITER   6: E=    -0.028907153 <r|r>= 2.48394821e-06
   AUGHESS-ITER   7: E=    -0.028907595 <r|r>= 4.83291712e-07 => CONVERGED
   DE(predicted)=   -0.014453797 First Element= 0.970730333
   <X(rot)|X(rot)>=      0.061213581
   --- Forming Natural Orbitals
   --- Density off from convergence (4.430e-01). Exact active Fock build

MACRO-ITERATION   2: 
   --- Inactive Energy E0 = -411.71284904 Eh
CI-ITERATION   0: 
  -417.879293059   0.000000000000 (    0.00)
   CI-PROBLEM SOLVED
   DENSITIES MADE
   E(CAS)=  -417.879293059 Eh DE=   -1.660510e-02
   --- Energy gap subspaces: Ext-Act = 0.179   Act-Int = 0.153
   --- current l-shift: Up(Ext-Act) = 0.92   Dn(Act-Int) = 0.95
   N(occ)=  1.98570 1.94283 1.92609 0.07514 0.05941 0.01083
   ||g|| =     8.768494e-02 Max(G)=    2.075385e-02 Rot=73,30
   --- Orbital Update [        NR]
   AugHess TrustRadius-Update: Energy-Ratio   1.149 	 TrustRadius 0.500
   AugHess: Applying Lambda(Damp)=    0.500645
   AugHess: Scaled sigma by     0.500645
   AUGHESS-ITER   0: E=    -0.000945637 <r|r>= 6.20427597e-03
   AugHess: Scaled sigma by     0.500645
   AUGHESS-ITER   1: E=    -0.004820287 <r|r>= 1.14415901e-03
   AugHess: Scaled sigma by     0.500645
   AUGHESS-ITER   2: E=    -0.005050476 <r|r>= 4.63614905e-04
   AugHess: Applying Lambda(Damp)=    0.882413
   AugHess: Scaled sigma by     0.882413
   AUGHESS-ITER   3: E=    -0.005611976 <r|r>= 5.72534288e-04
   AugHess: Applying Lambda(Damp)=    0.747183
   AugHess: Scaled sigma by     0.747183
   AUGHESS-ITER   4: E=    -0.005662876 <r|r>= 5.54586017e-04
   AugHess: Applying Lambda(Damp)=    0.746433
   Warning: Orthogonalization of Davidson vectors failed (2e-14). Keeping the last valid vector 
   AugHess: No convergence in the Davidson procedure!
   DE(predicted)=   -0.002831438 First Element= 0.811767307
   <X(rot)|X(rot)>=      0.517528607
   --- Forming Natural Orbitals
   --- Density close to convergence (5.228e-03). Approximate active Fock build

MACRO-ITERATION   3: 
   --- Inactive Energy E0 = -411.72491569 Eh
CI-ITERATION   0: 
  -417.884851762   0.000000000000 (    0.00)
   CI-PROBLEM SOLVED
   DENSITIES MADE
   E(CAS)=  -417.884851762 Eh DE=   -5.558703e-03
   --- Energy gap subspaces: Ext-Act = 0.111   Act-Int = 0.155
   --- current l-shift: Up(Ext-Act) = 0.82   Dn(Act-Int) = 0.78
   N(occ)=  1.97757 1.94898 1.92666 0.07456 0.05762 0.01461
   ||g|| =     8.200438e-02 Max(G)=    1.726084e-02 Rot=36,9
   --- Orbital Update [        NR]
   AugHess TrustRadius-Update: Energy-Ratio   1.963 	 TrustRadius 0.250
   AugHess: Applying Lambda(Damp)=    0.289060
   AugHess: Scaled sigma by     0.289060
   AUGHESS-ITER   0: E=    -0.004205129 <r|r>= 6.26158353e-03
   AugHess: Applying Lambda(Damp)=    0.222734
   AugHess: Scaled sigma by     0.222734
   AUGHESS-ITER   1: E=    -0.008254386 <r|r>= 3.58354053e-03
   AugHess: Applying Lambda(Damp)=    0.689757
   AugHess: Scaled sigma by     0.689757
   AUGHESS-ITER   2: E=    -0.010712431 <r|r>= 5.94721366e-04
   AugHess: Applying Lambda(Damp)=    0.145494
   AugHess: Scaled sigma by     0.145494
   AUGHESS-ITER   3: E=    -0.011675589 <r|r>= 4.02867373e-04
   AugHess: Applying Lambda(Damp)=    0.870067
   AugHess: Scaled sigma by     0.870067
   AUGHESS-ITER   4: E=    -0.011791023 <r|r>= 4.98031171e-04
   AugHess: Applying Lambda(Damp)=    0.956654
   AugHess: Scaled sigma by     0.956654
   AUGHESS-ITER   5: E=    -0.011831035 <r|r>= 4.02753464e-04
   AugHess: Applying Lambda(Damp)=    0.944473
   AugHess: Scaled sigma by     0.944473
   AUGHESS-ITER   6: E=    -0.011832166 <r|r>= 3.86557238e-04
   AugHess: Applying Lambda(Damp)=    0.948639
   AugHess: Scaled sigma by     0.948639
   AUGHESS-ITER   7: E=    -0.011851557 <r|r>= 3.60313845e-04
   AugHess: Applying Lambda(Damp)=    0.923360
   AugHess: Scaled sigma by     0.923360
   AUGHESS-ITER   8: E=    -0.011851572 <r|r>= 3.60439208e-04
   AugHess: Applying Lambda(Damp)=    0.921355
   AugHess: Scaled sigma by     0.921355
   AUGHESS-ITER   9: E=    -0.011852150 <r|r>= 3.66066254e-04
   AugHess: Applying Lambda(Damp)=    0.923575
   AugHess: Scaled sigma by     0.923575
   AUGHESS-ITER  10: E=    -0.011852271 <r|r>= 3.67575143e-04
   AugHess: Applying Lambda(Damp)=    0.922783
   AugHess: Scaled sigma by     0.922783
   AUGHESS-ITER  11: E=    -0.011857239 <r|r>= 3.65253784e-04
   AugHess: Applying Lambda(Damp)=    0.924243
   AugHess: Scaled sigma by     0.924243
   AUGHESS-ITER  12: E=    -0.011860876 <r|r>= 3.61510981e-04
   AugHess: Applying Lambda(Damp)=    0.927016
   AugHess: Scaled sigma by     0.927016
   AUGHESS-ITER  13: E=    -0.011868864 <r|r>= 3.44438042e-04
   AugHess: Applying Lambda(Damp)=    0.927207
   AugHess: Scaled sigma by     0.927207
   AUGHESS-ITER  14: E=    -0.011868921 <r|r>= 3.45224804e-04
   AugHess: Applying Lambda(Damp)=    0.926763
   AugHess: Scaled sigma by     0.926763
   AUGHESS-ITER  15: E=    -0.011869036 <r|r>= 3.45395591e-04
   AugHess: Applying Lambda(Damp)=    0.926966
   AugHess: Scaled sigma by     0.926966
   AUGHESS-ITER  16: E=    -0.011869903 <r|r>= 3.43776702e-04
   AugHess: Applying Lambda(Damp)=    0.926227
   AugHess: Scaled sigma by     0.926227
   AUGHESS-ITER  17: E=    -0.011870394 <r|r>= 3.43837866e-04
   AugHess: Applying Lambda(Damp)=    0.926356
   AugHess: Scaled sigma by     0.926356
   AUGHESS-ITER  18: E=    -0.011870775 <r|r>= 3.43729304e-04
   AugHess: Applying Lambda(Damp)=    0.926388
   AugHess: Scaled sigma by     0.926388
   AUGHESS-ITER  19: E=    -0.011871433 <r|r>= 3.44204961e-04
   AugHess: Applying Lambda(Damp)=    0.927764
   AugHess: Scaled sigma by     0.927764
   AUGHESS-ITER  20: E=    -0.011871467 <r|r>= 3.44209380e-04
   AugHess: Applying Lambda(Damp)=    0.927848
   AugHess: Scaled sigma by     0.927848
   AUGHESS-ITER  21: E=    -0.011872863 <r|r>= 3.48213207e-04
   AugHess: Applying Lambda(Damp)=    0.928895
   AugHess: Scaled sigma by     0.928895
   AUGHESS-ITER  22: E=    -0.011873274 <r|r>= 3.51195957e-04
   AugHess: Applying Lambda(Damp)=    0.929352
   AugHess: Scaled sigma by     0.929352
   AUGHESS-ITER  23: E=    -0.011873334 <r|r>= 3.51106701e-04
   AugHess: Applying Lambda(Damp)=    0.929552
   AugHess: Scaled sigma by     0.929552
   AUGHESS-ITER  24: E=    -0.011874325 <r|r>= 3.49237365e-04
   AugHess: Applying Lambda(Damp)=    0.927771
   AugHess: Scaled sigma by     0.927771
   AUGHESS-ITER  25: E=    -0.011874339 <r|r>= 3.49572281e-04
   AugHess: Applying Lambda(Damp)=    0.927884
   AugHess: Scaled sigma by     0.927884
   AUGHESS-ITER  26: E=    -0.011875931 <r|r>= 3.51896858e-04
   AugHess: Applying Lambda(Damp)=    0.926106
   AugHess: Scaled sigma by     0.926106
   AUGHESS-ITER  27: E=    -0.011876129 <r|r>= 3.52420798e-04
   AugHess: Applying Lambda(Damp)=    0.926306
   AugHess: Scaled sigma by     0.926306
   AUGHESS-ITER  28: E=    -0.011876178 <r|r>= 3.52250111e-04
   AugHess: Applying Lambda(Damp)=    0.926608
   AugHess: Scaled sigma by     0.926608
   AUGHESS-ITER  29: E=    -0.011877497 <r|r>= 3.55838212e-04
   AugHess: Applying Lambda(Damp)=    0.927242
   AugHess: Scaled sigma by     0.927242
   AUGHESS-ITER  30: E=    -0.011877804 <r|r>= 3.56904380e-04
   AugHess: Applying Lambda(Damp)=    0.926874
   AugHess: Scaled sigma by     0.926874
   AUGHESS-ITER  31: E=    -0.011877896 <r|r>= 3.57759637e-04
   AugHess: Applying Lambda(Damp)=    0.926807
   AugHess: Scaled sigma by     0.926807
   AUGHESS-ITER  32: E=    -0.011877909 <r|r>= 3.58006279e-04
   AugHess: Applying Lambda(Damp)=    0.926793
   AugHess: Scaled sigma by     0.926793
   AUGHESS-ITER  33: E=    -0.011878436 <r|r>= 3.55495734e-04
   AugHess: Applying Lambda(Damp)=    0.926335
   AugHess: Scaled sigma by     0.926335
   AUGHESS-ITER  34: E=    -0.011878540 <r|r>= 3.54805114e-04
   AugHess: Applying Lambda(Damp)=    0.925991
   Warning: Orthogonalization of Davidson vectors failed (2e-10). Keeping the last valid vector 
   AugHess: No convergence in the Davidson procedure!
   DE(predicted)=   -0.005939270 First Element= 0.799235216
   <X(rot)|X(rot)>=      0.565491727
   --- SFit(Active Orbitals)
   --- Density off from convergence (2.645e-02). Exact active Fock build

MACRO-ITERATION   4: 
   --- Inactive Energy E0 = -411.85239745 Eh
CI-ITERATION   0: 
  -417.879586374   0.000000000000 (    0.00)
   CI-PROBLEM SOLVED
   DENSITIES MADE
   E(CAS)=  -417.879586374 Eh DE=    5.265388e-03
   --- Energy gap subspaces: Ext-Act = 0.041   Act-Int = 0.168
   --- current l-shift: Up(Ext-Act) = 0.56   Dn(Act-Int) = 0.43
   N(occ)=  1.95674 1.94982 1.92564 0.07649 0.05796 0.03334
   ||g|| =     4.154652e-01 Max(G)=   -9.395263e-02 Rot=36,9
   --- Orbital Update [        NR]
   AugHess TrustRadius-Update: Energy-Ratio  -0.887 	 TrustRadius 0.250
   AugHess: Applying Lambda(Damp)=    0.675273
   AugHess: Scaled sigma by     0.675273
   AUGHESS-ITER   0: E=    -0.008718579 <r|r>= 1.56364013e-01
   AugHess: Scaled sigma by     0.675273
   AUGHESS-ITER   1: E=    -0.034950198 <r|r>= 9.67289806e-03
   AugHess: Scaled sigma by     0.675273
   AUGHESS-ITER   2: E=    -0.041871820 <r|r>= 1.78871073e-03
   AugHess: Scaled sigma by     0.675273
   AUGHESS-ITER   3: E=    -0.042460361 <r|r>= 2.48466106e-04
   AugHess: Scaled sigma by     0.675273
   AUGHESS-ITER   4: E=    -0.042588124 <r|r>= 9.72223916e-05
   AugHess: Scaled sigma by     0.675273
   AUGHESS-ITER   5: E=    -0.042629420 <r|r>= 2.90376371e-05
   AugHess: Scaled sigma by     0.675273
   AUGHESS-ITER   6: E=    -0.042644317 <r|r>= 1.17950607e-05
   AugHess: Scaled sigma by     0.675273
   AUGHESS-ITER   7: E=    -0.042649720 <r|r>= 3.58544722e-06
   AugHess: Scaled sigma by     0.675273
   AUGHESS-ITER   8: E=    -0.042650839 <r|r>= 9.05637053e-07 => CONVERGED
   DE(predicted)=   -0.021325419 First Element= 0.965426286
   <X(rot)|X(rot)>=      0.072906215
   --- SFit(Active Orbitals)
   --- Density off from convergence (6.286e-02). Exact active Fock build

MACRO-ITERATION   5: 
   --- Inactive Energy E0 = -411.77851837 Eh
CI-ITERATION   0: 
  -417.894599848   0.000000000000 (    0.00)
   CI-PROBLEM SOLVED
   DENSITIES MADE
   E(CAS)=  -417.894599848 Eh DE=   -1.501347e-02
   --- Energy gap subspaces: Ext-Act = 0.095   Act-Int = 0.146
   --- current l-shift: Up(Ext-Act) = 0.50   Dn(Act-Int) = 0.45
   N(occ)=  1.94515 1.94737 1.92144 0.08125 0.05978 0.04500
   ||g|| =     1.662226e-01 Max(G)=   -4.528490e-02 Rot=73,30
   --- Orbital Update [        NR]
   AugHess TrustRadius-Update: Energy-Ratio   0.704 	 TrustRadius 0.250
   AUGHESS-ITER   0: E=    -0.002426695 <r|r>= 2.49061675e-02
   AUGHESS-ITER   1: E=    -0.006284613 <r|r>= 2.14860287e-03
   AUGHESS-ITER   2: E=    -0.006778329 <r|r>= 3.74721997e-04
   AUGHESS-ITER   3: E=    -0.006906077 <r|r>= 1.88896863e-04
   AUGHESS-ITER   4: E=    -0.006974658 <r|r>= 8.21770795e-05
   AUGHESS-ITER   5: E=    -0.006997369 <r|r>= 1.92264611e-05
   AUGHESS-ITER   6: E=    -0.007003383 <r|r>= 5.75007773e-06
   AUGHESS-ITER   7: E=    -0.007004733 <r|r>= 1.14446558e-06
   AUGHESS-ITER   8: E=    -0.007005010 <r|r>= 3.20253980e-07 => CONVERGED
   DE(predicted)=   -0.003502505 First Element= 0.969790460
   <X(rot)|X(rot)>=      0.063271530
   --- SFit(Active Orbitals)
   --- Density off from convergence (4.798e-02). Exact active Fock build

MACRO-ITERATION   6: 
   --- Inactive Energy E0 = -411.81303397 Eh
CI-ITERATION   0: 
  -417.898549985   0.000000000000 (    0.00)
   CI-PROBLEM SOLVED
   DENSITIES MADE
   E(CAS)=  -417.898549985 Eh DE=   -3.950137e-03
   --- Energy gap subspaces: Ext-Act = 0.103   Act-Int = 0.154
   --- current l-shift: Up(Ext-Act) = 0.50   Dn(Act-Int) = 0.45
   N(occ)=  1.93923 1.94856 1.92004 0.08325 0.05896 0.04995
   ||g|| =     2.072407e-02 Max(G)=   -5.813821e-03 Rot=73,30
   --- Orbital Update [        NR]
   AugHess TrustRadius-Update: Energy-Ratio   1.128 	 TrustRadius 0.250
   AUGHESS-ITER   0: E=    -0.000255111 <r|r>= 4.91591932e-04
   AUGHESS-ITER   1: E=    -0.000332796 <r|r>= 8.22603479e-05
   AUGHESS-ITER   2: E=    -0.000371001 <r|r>= 5.83765546e-05
   AUGHESS-ITER   3: E=    -0.000390244 <r|r>= 2.58570738e-05
   AUGHESS-ITER   4: E=    -0.000399042 <r|r>= 7.93631339e-06
   AUGHESS-ITER   5: E=    -0.000401228 <r|r>= 2.62981174e-06
   AUGHESS-ITER   6: E=    -0.000402049 <r|r>= 9.11386103e-07 => CONVERGED
   DE(predicted)=   -0.000201025 First Element= 0.993377887
   <X(rot)|X(rot)>=      0.013376954
   --- SFit(Active Orbitals)
   --- Density close to convergence (7.759e-03). Approximate active Fock build

MACRO-ITERATION   7: 
   ===>>> Convergence to 3.0e-02 achieved - switching to Step=SuperCI(PT)
   --- Inactive Energy E0 = -411.82368696 Eh
CI-ITERATION   0: 
  -417.898806782   0.000000000000 (    0.00)
   CI-PROBLEM SOLVED
   DENSITIES MADE
   E(CAS)=  -417.898806782 Eh DE=   -2.567964e-04
   --- Energy gap subspaces: Ext-Act = 0.108   Act-Int = 0.159
   --- current l-shift: Up(Ext-Act) = 0.49   Dn(Act-Int) = 0.44
   N(occ)=  1.93722 1.94828 1.91940 0.08411 0.05953 0.05147
   ||g|| =     9.207531e-03 Max(G)=   -3.941985e-03 Rot=73,30
   --- Orbital Update [SuperCI(PT)]
   --- Canonicalize Internal Space
   --- Canonicalize External Space
   --- SX_PT (Skipped TA=0 IT=0): ||X|| =      0.022742786 Max(X)(30,27) =     -0.016769348 
   --- SFit(Active Orbitals)

MACRO-ITERATION   8: 
   --- Inactive Energy E0 = -411.83339755 Eh
CI-ITERATION   0: 
  -417.898824948   0.000000000000 (    0.00)
   CI-PROBLEM SOLVED
   DENSITIES MADE
   E(CAS)=  -417.898824948 Eh DE=   -1.816665e-05
   --- Energy gap subspaces: Ext-Act = 0.115   Act-Int = 0.171
   --- current l-shift: Up(Ext-Act) = 0.48   Dn(Act-Int) = 0.43
   N(occ)=  1.93674 1.94813 1.91918 0.08439 0.05979 0.05177
   ||g|| =     3.563088e-02 Max(G)=    9.294249e-03 Rot=30,27
   --- Orbital Update [SuperCI(PT)]
   --- Canonicalize Internal Space
   --- Canonicalize External Space
   --- SX_PT (Skipped TA=0 IT=0): ||X|| =      0.112188640 Max(X)(30,27) =     -0.081906358 
   --- SFit(Active Orbitals)

MACRO-ITERATION   9: 
   --- Inactive Energy E0 = -411.82398002 Eh
CI-ITERATION   0: 
  -417.898805076   0.000000000000 (    0.00)
   CI-PROBLEM SOLVED
   DENSITIES MADE
   E(CAS)=  -417.898805076 Eh DE=    1.987237e-05
   --- Energy gap subspaces: Ext-Act = 0.108   Act-Int = 0.159
   --- current l-shift: Up(Ext-Act) = 0.49   Dn(Act-Int) = 0.44
   N(occ)=  1.93681 1.94844 1.91925 0.08430 0.05943 0.05176
   ||g|| =     8.871191e-03 Max(G)=   -1.696441e-03 Rot=29,27
   --- Orbital Update [SuperCI(PT)]
   --- Canonicalize Internal Space
   --- Canonicalize External Space
   --- SX_PT (Skipped TA=0 IT=0): ||X|| =      0.028323280 Max(X)(29,27) =      0.016542860 
   --- SFit(Active Orbitals)

MACRO-ITERATION  10: 
   --- Inactive Energy E0 = -411.82292286 Eh
CI-ITERATION   0: 
  -417.898802859   0.000000000000 (    0.00)
   CI-PROBLEM SOLVED
   DENSITIES MADE
   E(CAS)=  -417.898802859 Eh DE=    2.217164e-06
   --- Energy gap subspaces: Ext-Act = 0.108   Act-Int = 0.158
   --- current l-shift: Up(Ext-Act) = 0.49   Dn(Act-Int) = 0.44
   N(occ)=  1.93685 1.94847 1.91926 0.08429 0.05939 0.05175
   ||g|| =     7.620017e-03 Max(G)=   -1.660024e-03 Rot=73,30
   --- Orbital Update [SuperCI(PT)]
   --- Canonicalize Internal Space
   --- Canonicalize External Space
   --- SX_PT (Skipped TA=0 IT=0): ||X|| =      0.011719173 Max(X)(29,27) =      0.008403270 
   --- SFit(Active Orbitals)

MACRO-ITERATION  11: 
   --- Inactive Energy E0 = -411.82334935 Eh
CI-ITERATION   0: 
  -417.898807924   0.000000000000 (    0.00)
   CI-PROBLEM SOLVED
   DENSITIES MADE
   E(CAS)=  -417.898807924 Eh DE=   -5.065359e-06
   --- Energy gap subspaces: Ext-Act = 0.108   Act-Int = 0.158
   --- current l-shift: Up(Ext-Act) = 0.49   Dn(Act-Int) = 0.44
   N(occ)=  1.93676 1.94848 1.91924 0.08433 0.05940 0.05180
   ||g|| =     7.336540e-03 Max(G)=    1.570181e-03 Rot=29,21
   --- Orbital Update [SuperCI(PT)]
   --- Canonicalize Internal Space
   --- Canonicalize External Space
   --- SX_PT (Skipped TA=0 IT=0): ||X|| =      0.034603656 Max(X)(29,27) =      0.014292572 
   --- SFit(Active Orbitals)

MACRO-ITERATION  12: 
   --- Inactive Energy E0 = -411.82207446 Eh
CI-ITERATION   0: 
  -417.898816145   0.000000000000 (    0.00)
   CI-PROBLEM SOLVED
   DENSITIES MADE
   E(CAS)=  -417.898816145 Eh DE=   -8.221515e-06
   --- Energy gap subspaces: Ext-Act = 0.108   Act-Int = 0.158
   --- current l-shift: Up(Ext-Act) = 0.49   Dn(Act-Int) = 0.44
   N(occ)=  1.93666 1.94855 1.91920 0.08438 0.05933 0.05187
   ||g|| =     6.098011e-03 Max(G)=    1.939104e-03 Rot=30,17
   --- Orbital Update [SuperCI(PT)]
   --- Canonicalize Internal Space
   --- Canonicalize External Space
   --- SX_PT (Skipped TA=0 IT=0): ||X|| =      0.039879870 Max(X)(30,28) =      0.027183037 
   --- SFit(Active Orbitals)

MACRO-ITERATION  13: 
   --- Inactive Energy E0 = -411.82186073 Eh
CI-ITERATION   0: 
  -417.898818134   0.000000000000 (    0.00)
   CI-PROBLEM SOLVED
   DENSITIES MADE
   E(CAS)=  -417.898818134 Eh DE=   -1.988670e-06
   --- Energy gap subspaces: Ext-Act = 0.108   Act-Int = 0.157
   --- current l-shift: Up(Ext-Act) = 0.49   Dn(Act-Int) = 0.44
   N(occ)=  1.93664 1.94856 1.91920 0.08439 0.05932 0.05189
   ||g|| =     5.758705e-03 Max(G)=    1.701123e-03 Rot=33,27
   --- Orbital Update [SuperCI(PT)]
   --- Canonicalize Internal Space
   --- Canonicalize External Space
   --- SX_PT (Skipped TA=0 IT=0): ||X|| =      0.013730224 Max(X)(30,27) =     -0.007777912 
   --- SFit(Active Orbitals)

MACRO-ITERATION  14: 
   --- Inactive Energy E0 = -411.82191271 Eh
CI-ITERATION   0: 
  -417.898818384   0.000000000000 (    0.00)
   CI-PROBLEM SOLVED
   DENSITIES MADE
   E(CAS)=  -417.898818384 Eh DE=   -2.498999e-07
   --- Energy gap subspaces: Ext-Act = 0.108   Act-Int = 0.157
   --- current l-shift: Up(Ext-Act) = 0.49   Dn(Act-Int) = 0.44
   N(occ)=  1.93664 1.94856 1.91920 0.08439 0.05933 0.05189
   ||g|| =     5.917669e-03 Max(G)=    1.763134e-03 Rot=33,27
   --- Orbital Update [SuperCI(PT)]
   --- Canonicalize Internal Space
   --- Canonicalize External Space
   --- SX_PT (Skipped TA=0 IT=0): ||X|| =      0.011860031 Max(X)(30,27) =     -0.007418743 
   --- SFit(Active Orbitals)

MACRO-ITERATION  15: 
   --- Inactive Energy E0 = -411.82163133 Eh
CI-ITERATION   0: 
  -417.898816579   0.000000000000 (    0.00)
   CI-PROBLEM SOLVED
   DENSITIES MADE
   E(CAS)=  -417.898816579 Eh DE=    1.804849e-06
   --- Energy gap subspaces: Ext-Act = 0.108   Act-Int = 0.157
   --- current l-shift: Up(Ext-Act) = 0.49   Dn(Act-Int) = 0.44
   N(occ)=  1.93659 1.94860 1.91918 0.08441 0.05930 0.05192
   ||g|| =     4.774403e-03 Max(G)=    1.637689e-03 Rot=30,15
   --- Orbital Update [SuperCI(PT)]
   --- Canonicalize Internal Space
   --- Canonicalize External Space
   --- SX_PT (Skipped TA=0 IT=0): ||X|| =      0.019850130 Max(X)(30,22) =      0.008969998 
   --- SFit(Active Orbitals)

MACRO-ITERATION  16: 
   --- Inactive Energy E0 = -411.82165832 Eh
CI-ITERATION   0: 
  -417.898814172   0.000000000000 (    0.00)
   CI-PROBLEM SOLVED
   DENSITIES MADE
   E(CAS)=  -417.898814172 Eh DE=    2.407018e-06
   --- Energy gap subspaces: Ext-Act = 0.108   Act-Int = 0.157
   --- current l-shift: Up(Ext-Act) = 0.49   Dn(Act-Int) = 0.44
   N(occ)=  1.93652 1.94863 1.91916 0.08445 0.05928 0.05197
   ||g|| =     3.169922e-03 Max(G)=   -1.298291e-03 Rot=30,15
   --- Orbital Update [SuperCI(PT)]
   --- Canonicalize Internal Space
   --- Canonicalize External Space
   --- SX_PT (Skipped TA=0 IT=0): ||X|| =      0.018534510 Max(X)(30,23) =      0.008030574 
   --- SFit(Active Orbitals)

MACRO-ITERATION  17: 
   --- Inactive Energy E0 = -411.82189622 Eh
CI-ITERATION   0: 
  -417.898812873   0.000000000000 (    0.00)
   CI-PROBLEM SOLVED
   DENSITIES MADE
   E(CAS)=  -417.898812873 Eh DE=    1.299630e-06
   --- Energy gap subspaces: Ext-Act = 0.108   Act-Int = 0.157
   --- current l-shift: Up(Ext-Act) = 0.49   Dn(Act-Int) = 0.44
   N(occ)=  1.93649 1.94864 1.91914 0.08447 0.05927 0.05199
   ||g|| =     1.789279e-03 Max(G)=    5.613247e-04 Rot=33,27
   --- Orbital Update [SuperCI(PT)]
   --- Canonicalize Internal Space
   --- Canonicalize External Space
   --- SX_PT (Skipped TA=0 IT=0): ||X|| =      0.004774827 Max(X)(30,27) =     -0.001647084 
   --- SFit(Active Orbitals)

MACRO-ITERATION  18: 
   --- Inactive Energy E0 = -411.82190968 Eh
CI-ITERATION   0: 
  -417.898812853   0.000000000000 (    0.00)
   CI-PROBLEM SOLVED
   DENSITIES MADE
   E(CAS)=  -417.898812853 Eh DE=    1.967828e-08
   --- Energy gap subspaces: Ext-Act = 0.108   Act-Int = 0.157
   --- current l-shift: Up(Ext-Act) = 0.49   Dn(Act-Int) = 0.44
   N(occ)=  1.93649 1.94864 1.91914 0.08447 0.05927 0.05199
   ||g|| =     1.742613e-03 Max(G)=    5.714335e-04 Rot=33,27
   --- Orbital Update [SuperCI(PT)]
   --- Canonicalize Internal Space
   --- Canonicalize External Space
   --- SX_PT (Skipped TA=0 IT=0): ||X|| =      0.003385923 Max(X)(30,27) =     -0.001725101 
   --- SFit(Active Orbitals)

MACRO-ITERATION  19: 
   --- Inactive Energy E0 = -411.82192511 Eh
CI-ITERATION   0: 
  -417.898812499   0.000000000000 (    0.00)
   CI-PROBLEM SOLVED
   DENSITIES MADE
   E(CAS)=  -417.898812499 Eh DE=    3.542235e-07
   --- Energy gap subspaces: Ext-Act = 0.108   Act-Int = 0.157
   --- current l-shift: Up(Ext-Act) = 0.49   Dn(Act-Int) = 0.44
   N(occ)=  1.93647 1.94864 1.91914 0.08448 0.05927 0.05200
   ||g|| =     1.603948e-03 Max(G)=    5.284642e-04 Rot=33,27
   --- Orbital Update [SuperCI(PT)]
   --- Canonicalize Internal Space
   --- Canonicalize External Space
   --- SX_PT (Skipped TA=0 IT=0): ||X|| =      0.005505530 Max(X)(31,24) =     -0.002471511 
   --- SFit(Active Orbitals)

MACRO-ITERATION  20: 
   --- Inactive Energy E0 = -411.82183080 Eh
CI-ITERATION   0: 
  -417.898811605   0.000000000000 (    0.00)
   CI-PROBLEM SOLVED
   DENSITIES MADE
   E(CAS)=  -417.898811605 Eh DE=    8.937379e-07
   --- Energy gap subspaces: Ext-Act = 0.108   Act-Int = 0.157
   --- current l-shift: Up(Ext-Act) = 0.49   Dn(Act-Int) = 0.44
   N(occ)=  1.93645 1.94865 1.91913 0.08449 0.05926 0.05202
   ||g|| =     1.499722e-03 Max(G)=    4.375201e-04 Rot=33,27
   --- Orbital Update [SuperCI(PT)]
   --- Canonicalize Internal Space
   --- Canonicalize External Space
   --- SX_PT (Skipped TA=0 IT=0): ||X|| =      0.004155971 Max(X)(29,26) =     -0.001783708 
   --- SFit(Active Orbitals)

MACRO-ITERATION  21: 
   --- Inactive Energy E0 = -411.82169976 Eh
CI-ITERATION   0: 
  -417.898811189   0.000000000000 (    0.00)
   CI-PROBLEM SOLVED
   DENSITIES MADE
   E(CAS)=  -417.898811189 Eh DE=    4.161298e-07
   --- Energy gap subspaces: Ext-Act = 0.108   Act-Int = 0.157
   --- current l-shift: Up(Ext-Act) = 0.49   Dn(Act-Int) = 0.44
   N(occ)=  1.93645 1.94866 1.91913 0.08449 0.05925 0.05202
   ||g|| =     1.693833e-03 Max(G)=    4.742083e-04 Rot=33,27
   --- Orbital Update [SuperCI(PT)]
   --- Canonicalize Internal Space
   --- Canonicalize External Space
   --- SX_PT (Skipped TA=0 IT=0): ||X|| =      0.001832679 Max(X)(29,26) =      0.000719750 
   --- SFit(Active Orbitals)

MACRO-ITERATION  22: 
   --- Inactive Energy E0 = -411.82171423 Eh
CI-ITERATION   0: 
  -417.898811233   0.000000000000 (    0.00)
   CI-PROBLEM SOLVED
   DENSITIES MADE
   E(CAS)=  -417.898811233 Eh DE=   -4.422799e-08
   --- Energy gap subspaces: Ext-Act = 0.108   Act-Int = 0.157
   --- current l-shift: Up(Ext-Act) = 0.49   Dn(Act-Int) = 0.44
   N(occ)=  1.93645 1.94866 1.91912 0.08449 0.05925 0.05202
   ||g|| =     1.602053e-03 Max(G)=    4.579166e-04 Rot=33,27
   --- Orbital Update [SuperCI(PT)]
   --- Canonicalize Internal Space
   --- Canonicalize External Space
   --- SX_PT (Skipped TA=0 IT=0): ||X|| =      0.002454805 Max(X)(29,26) =      0.001181043 
   --- SFit(Active Orbitals)

MACRO-ITERATION  23: 
   --- Inactive Energy E0 = -411.82182317 Eh
CI-ITERATION   0: 
  -417.898811583   0.000000000000 (    0.00)
   CI-PROBLEM SOLVED
   DENSITIES MADE
   E(CAS)=  -417.898811583 Eh DE=   -3.501999e-07
   --- Energy gap subspaces: Ext-Act = 0.108   Act-Int = 0.157
   --- current l-shift: Up(Ext-Act) = 0.49   Dn(Act-Int) = 0.44
   N(occ)=  1.93643 1.94865 1.91912 0.08450 0.05926 0.05203
   ||g|| =     9.691007e-04 Max(G)=    3.139782e-04 Rot=33,27
   --- Orbital Update [SuperCI(PT)]
   --- Canonicalize Internal Space
   --- Canonicalize External Space
   --- SX_PT (Skipped TA=0 IT=0): ||X|| =      0.001979240 Max(X)(30,16) =      0.000731497 
   --- SFit(Active Orbitals)

MACRO-ITERATION  24: 
   --- Inactive Energy E0 = -411.82180683 Eh
CI-ITERATION   0: 
  -417.898811164   0.000000000000 (    0.00)
   CI-PROBLEM SOLVED
   DENSITIES MADE
   E(CAS)=  -417.898811164 Eh DE=    4.190993e-07
   --- Energy gap subspaces: Ext-Act = 0.108   Act-Int = 0.157
   --- current l-shift: Up(Ext-Act) = 0.49   Dn(Act-Int) = 0.44
   N(occ)=  1.93644 1.94866 1.91912 0.08450 0.05926 0.05203
   ||g|| =     1.126929e-03 Max(G)=    2.755246e-04 Rot=33,27
   --- Orbital Update [SuperCI(PT)]
   --- Canonicalize Internal Space
   --- Canonicalize External Space
   --- SX_PT (Skipped TA=0 IT=0): ||X|| =      0.001156226 Max(X)(30,25) =      0.000389351 
   --- SFit(Active Orbitals)

MACRO-ITERATION  25: 
   --- Inactive Energy E0 = -411.82179016 Eh
CI-ITERATION   0: 
  -417.898811421   0.000000000000 (    0.00)
   CI-PROBLEM SOLVED
   DENSITIES MADE
   E(CAS)=  -417.898811421 Eh DE=   -2.565037e-07
   --- Energy gap subspaces: Ext-Act = 0.108   Act-Int = 0.157
   --- current l-shift: Up(Ext-Act) = 0.49   Dn(Act-Int) = 0.44
   N(occ)=  1.93645 1.94865 1.91913 0.08449 0.05926 0.05202
   ||g|| =     1.111288e-03 Max(G)=    3.070733e-04 Rot=33,27
   --- Orbital Update [SuperCI(PT)]
   --- Canonicalize Internal Space
   --- Canonicalize External Space
   --- SX_PT (Skipped TA=0 IT=0): ||X|| =      0.001485652 Max(X)(29,23) =     -0.000545303 
   --- SFit(Active Orbitals)

MACRO-ITERATION  26: 
   --- Inactive Energy E0 = -411.82182465 Eh
CI-ITERATION   0: 
  -417.898811204   0.000000000000 (    0.00)
   CI-PROBLEM SOLVED
   DENSITIES MADE
   E(CAS)=  -417.898811204 Eh DE=    2.170908e-07
   --- Energy gap subspaces: Ext-Act = 0.108   Act-Int = 0.157
   --- current l-shift: Up(Ext-Act) = 0.49   Dn(Act-Int) = 0.44
   N(occ)=  1.93644 1.94865 1.91912 0.08450 0.05926 0.05202
   ||g|| =     1.105505e-03 Max(G)=    2.573718e-04 Rot=33,27
   --- Orbital Update [SuperCI(PT)]
   --- Canonicalize Internal Space
   --- Canonicalize External Space
   --- SX_PT (Skipped TA=0 IT=0): ||X|| =      0.001468883 Max(X)(29,27) =      0.000503966 
   --- SFit(Active Orbitals)

MACRO-ITERATION  27: 
   --- Inactive Energy E0 = -411.82184125 Eh
CI-ITERATION   0: 
  -417.898811217   0.000000000000 (    0.00)
   CI-PROBLEM SOLVED
   DENSITIES MADE
   E(CAS)=  -417.898811217 Eh DE=   -1.372661e-08
   --- Energy gap subspaces: Ext-Act = 0.108   Act-Int = 0.157
   --- current l-shift: Up(Ext-Act) = 0.49   Dn(Act-Int) = 0.44
   N(occ)=  1.93643 1.94865 1.91912 0.08450 0.05926 0.05203
   ||g|| =     9.670286e-04 Max(G)=    2.794926e-04 Rot=33,27
                     ---- THE CAS-SCF ENERGY   HAS CONVERGED ----
                            --- FINALIZING ORBITALS ---
                    ---- DOING ONE FINAL ITERATION FOR PRINTING ----
   --- Forming Natural Orbitals
   --- Canonicalize Internal Space
   --- Canonicalize External Space

MACRO-ITERATION  28: 
   --- Inactive Energy E0 = -411.82184125 Eh
   --- All densities will be recomputed
CI-ITERATION   0: 
  -417.898811216   0.000000000000 (    0.00)
   CI-PROBLEM SOLVED
   DENSITIES MADE
   E(CAS)=  -417.898811216 Eh DE=    1.106173e-09
   --- Energy gap subspaces: Ext-Act = -0.400   Act-Int = -0.028
   --- current l-shift: Up(Ext-Act) = 1.00   Dn(Act-Int) = 0.63
   N(occ)=  1.95801 1.93897 1.91185 0.09110 0.06501 0.03507
   ||g|| =     1.742487e-02 Max(G)=   -3.115573e-03 Rot=35,28
   --- Number of divergent steps = 12
--------------
CASSCF RESULTS
--------------

Final CASSCF energy       : -417.898811216 Eh  -11371.6048 eV

----------------
ORBITAL ENERGIES
----------------

  NO   OCC          E(Eh)            E(eV) 
   0   2.0000     -20.702870      -563.3537 
   1   2.0000     -20.503011      -557.9153 
   2   2.0000     -11.432475      -311.0935 
   3   2.0000     -11.301291      -307.5237 
   4   2.0000     -11.272356      -306.7364 
   5   2.0000     -11.268722      -306.6375 
   6   2.0000     -11.241834      -305.9059 
   7   2.0000     -11.224817      -305.4428 
   8   2.0000     -11.186365      -304.3965 
   9   2.0000      -1.533301       -41.7232 
  10   2.0000      -1.343988       -36.5718 
  11   2.0000      -1.151914       -31.3452 
  12   2.0000      -1.052841       -28.6493 
  13   2.0000      -1.008273       -27.4365 
  14   2.0000      -0.924099       -25.1460 
  15   2.0000      -0.871794       -23.7227 
  16   2.0000      -0.834686       -22.7129 
  17   2.0000      -0.765974       -20.8432 
  18   2.0000      -0.720721       -19.6118 
  19   2.0000      -0.689659       -18.7666 
  20   2.0000      -0.673547       -18.3281 
  21   2.0000      -0.642655       -17.4875 
  22   2.0000      -0.635587       -17.2952 
  23   2.0000      -0.596103       -16.2208 
  24   2.0000      -0.570865       -15.5340 
  25   2.0000      -0.534517       -14.5450 
  26   2.0000      -0.510748       -13.8982 
  27   2.0000      -0.439066       -11.9476 
  28   2.0000      -0.408434       -11.1140 
  29   1.9580      -0.436398       -11.8750 
  30   1.9390      -0.402623       -10.9559 
  31   1.9118      -0.334178        -9.0934 
  32   0.0911       0.150618         4.0985 
  33   0.0650       0.252618         6.8741 
  34   0.0351       0.470411        12.8005 
  35   0.0000       0.070062         1.9065 
  36   0.0000       0.158787         4.3208 
  37   0.0000       0.193335         5.2609 
  38   0.0000       0.210529         5.7288 
  39   0.0000       0.235180         6.3996 
  40   0.0000       0.262225         7.1355 
  41   0.0000       0.283864         7.7243 
  42   0.0000       0.343274         9.3410 
  43   0.0000       0.374621        10.1939 
  44   0.0000       0.408271        11.1096 
  45   0.0000       0.452877        12.3234 
  46   0.0000       0.480246        13.0682 
  47   0.0000       0.493919        13.4402 
  48   0.0000       0.518851        14.1187 
  49   0.0000       0.547494        14.8981 
  50   0.0000       0.580590        15.7986 
  51   0.0000       0.592927        16.1344 
  52   0.0000       0.613579        16.6963 
  53   0.0000       0.634870        17.2757 
  54   0.0000       0.647864        17.6293 
  55   0.0000       0.683463        18.5980 
  56   0.0000       0.688472        18.7343 
  57   0.0000       0.706003        19.2113 
  58   0.0000       0.744042        20.2464 
  59   0.0000       0.753615        20.5069 
  60   0.0000       0.759760        20.6741 
  61   0.0000       0.769621        20.9424 
  62   0.0000       0.786134        21.3918 
  63   0.0000       0.794654        21.6236 
  64   0.0000       0.824322        22.4309 
  65   0.0000       0.834740        22.7144 
  66   0.0000       0.860192        23.4070 
  67   0.0000       0.867494        23.6057 
  68   0.0000       0.880752        23.9665 
  69   0.0000       0.895830        24.3768 
  70   0.0000       0.902814        24.5668 
  71   0.0000       0.923716        25.1356 
  72   0.0000       0.940658        25.5966 
  73   0.0000       0.958993        26.0955 
  74   0.0000       0.967071        26.3153 
  75   0.0000       0.975688        26.5498 
  76   0.0000       1.014952        27.6182 
  77   0.0000       1.057679        28.7809 
  78   0.0000       1.065657        28.9980 
  79   0.0000       1.083566        29.4853 
  80   0.0000       1.121170        30.5086 
  81   0.0000       1.147310        31.2199 
  82   0.0000       1.172181        31.8967 
  83   0.0000       1.212346        32.9896 
  84   0.0000       1.238390        33.6983 
  85   0.0000       1.257326        34.2136 
  86   0.0000       1.311881        35.6981 
  87   0.0000       1.392261        37.8854 
  88   0.0000       1.435908        39.0730 
  89   0.0000       1.445497        39.3340 
  90   0.0000       1.467043        39.9203 
  91   0.0000       1.523610        41.4595 
  92   0.0000       1.590718        43.2856 
  93   0.0000       1.613979        43.9186 
  94   0.0000       1.651333        44.9351 
  95   0.0000       1.699457        46.2446 
  96   0.0000       1.723156        46.8895 
  97   0.0000       1.753997        47.7287 
  98   0.0000       1.808655        49.2160 
  99   0.0000       1.847074        50.2614 
 100   0.0000       1.867418        50.8150 
 101   0.0000       1.909303        51.9548 
 102   0.0000       1.930360        52.5278 
 103   0.0000       1.950861        53.0856 
 104   0.0000       1.994024        54.2602 
 105   0.0000       1.996382        54.3243 
 106   0.0000       2.014507        54.8175 
 107   0.0000       2.037970        55.4560 
 108   0.0000       2.054265        55.8994 
 109   0.0000       2.070908        56.3523 
 110   0.0000       2.091717        56.9185 
 111   0.0000       2.110796        57.4377 
 112   0.0000       2.139368        58.2152 
 113   0.0000       2.147506        58.4366 
 114   0.0000       2.197772        59.8044 
 115   0.0000       2.234189        60.7954 
 116   0.0000       2.250403        61.2366 
 117   0.0000       2.274867        61.9023 
 118   0.0000       2.304239        62.7015 
 119   0.0000       2.329999        63.4025 
 120   0.0000       2.345920        63.8357 
 121   0.0000       2.390240        65.0417 
 122   0.0000       2.442471        66.4630 
 123   0.0000       2.466715        67.1227 
 124   0.0000       2.475808        67.3702 
 125   0.0000       2.501619        68.0725 
 126   0.0000       2.585492        70.3548 
 127   0.0000       2.607912        70.9649 
 128   0.0000       2.613537        71.1180 
 129   0.0000       2.659285        72.3628 
 130   0.0000       2.722789        74.0909 
 131   0.0000       2.770093        75.3781 
 132   0.0000       2.798818        76.1597 
 133   0.0000       2.806466        76.3678 
 134   0.0000       2.884055        78.4791 
 135   0.0000       2.932569        79.7993 
 136   0.0000       2.962982        80.6268 
 137   0.0000       3.032829        82.5275 
 138   0.0000       3.079792        83.8054 
 139   0.0000       3.108470        84.5858 
 140   0.0000       3.137873        85.3859 
 141   0.0000       3.155182        85.8569 
 142   0.0000       3.170596        86.2763 
 143   0.0000       3.210826        87.3710 
 144   0.0000       3.253816        88.5408 
 145   0.0000       3.342560        90.9557 
 146   0.0000       3.376355        91.8753 
 147   0.0000       3.439012        93.5803 
 148   0.0000       3.556057        96.7652 
 149   0.0000       3.572294        97.2071 
 150   0.0000       3.637649        98.9854 
 151   0.0000       3.753350       102.1338 
 152   0.0000       3.805407       103.5504 
 153   0.0000       3.899642       106.1147 
 154   0.0000       4.110976       111.8654 
 155   0.0000       4.125635       112.2642 


---------------------------------------------
CAS-SCF STATES FOR BLOCK  1 MULT= 1 NROOTS= 1
---------------------------------------------

ROOT   0:  E=    -417.8988112162 Eh
      0.90718 [     0]: 222000
      0.02487 [    14]: 211110
      0.01719 [     4]: 220200
      0.00544 [    29]: 202020
      0.00543 [     7]: 220020
      0.00466 [    26]: 202200
      0.00463 [   101]: 022002
      0.00336 [    50]: 121101
      0.00313 [    65]: 112011
      0.00293 [    63]: 112101


--------------
DENSITY MATRIX
--------------

                  0          1          2          3          4          5    
      0       1.958012  -0.000000   0.000000  -0.000000   0.000000  -0.000000
      1      -0.000000   1.938966  -0.000000   0.000000   0.000000   0.000000
      2       0.000000  -0.000000   1.911847  -0.000000   0.000000   0.000000
      3      -0.000000   0.000000  -0.000000   0.091098  -0.000000  -0.000000
      4       0.000000   0.000000   0.000000  -0.000000   0.065012  -0.000000
      5      -0.000000   0.000000   0.000000  -0.000000  -0.000000   0.035066
Trace of the electron density:  6.000000

-----------------
ENERGY COMPONENTS
-----------------

One electron energy          :  -1399.513839622 Eh      -38082.7077 eV
Two electron energy          :    562.407729538 Eh       15303.8924 eV
Nuclear repulsion energy     :    419.207298868 Eh       11407.2105 eV
                               ----------------
                                 -417.898811216

Kinetic energy               :    416.567435643 Eh       11335.3762 eV
Potential energy             :   -834.466246859 Eh      -22706.9810 eV
Virial ratio                 :     -2.003196063 
                               ----------------
                                 -417.898811216

Core energy                  :   -411.821841250 Eh   -11206.2420 eV


----------------------------
LOEWDIN ORBITAL-COMPOSITIONS
----------------------------

                      0         1         2         3         4         5   
                 -20.70287 -20.50301 -11.43248 -11.30129 -11.27236 -11.26872
                   2.00000   2.00000   2.00000   2.00000   2.00000   2.00000
                  --------  --------  --------  --------  --------  --------
 1 C  s               0.0       0.0       0.0       0.0      96.4       3.2
 1 C  px              0.0       0.0       0.0       0.0       0.0       0.1
 2 C  s               0.0       0.0       0.0       0.0       3.1      96.4
 2 C  px              0.0       0.0       0.0       0.0       0.1       0.0
 4 C  s               0.0       0.0      99.5       0.0       0.0       0.0
 6 C  s               0.0       0.0       0.0      99.4       0.0       0.0
12 O  s               0.0      99.9       0.0       0.0       0.0       0.0
12 O  px              0.0       0.0       0.0       0.2       0.0       0.0
13 O  s              99.8       0.0       0.0       0.0       0.0       0.0
13 O  pz              0.0       0.0       0.2       0.0       0.0       0.0

                      6         7         8         9        10        11   
                 -11.24183 -11.22482 -11.18637  -1.53330  -1.34399  -1.15191
                   2.00000   2.00000   2.00000   2.00000   2.00000   2.00000
                  --------  --------  --------  --------  --------  --------
 0 C  s               0.1      99.5       0.0       0.0       0.0       7.6
 0 C  pz              0.0       0.0       0.0       0.0       0.0       0.7
 0 C  px              0.0       0.0       0.0       0.0       0.0       1.1
 0 C  py              0.1       0.0       0.0       0.0       0.0       0.4
 1 C  s               0.0       0.0       0.0       0.1       0.0      16.2
 1 C  px              0.0       0.0       0.0       0.1       0.0       3.3
 1 C  py              0.0       0.1       0.0       0.0       0.0       0.3
 1 C  dz2             0.0       0.0       0.0       0.0       0.0       0.1
 2 C  s               0.0       0.0       0.0       0.6       0.1      19.6
 2 C  pz              0.0       0.0       0.0       0.5       0.0       1.6
 2 C  px              0.0       0.0       0.0       0.4       0.0       0.8
 2 C  py              0.0       0.0       0.0       0.4       0.1       1.6
 2 C  dyz             0.0       0.0       0.0       0.0       0.0       0.1
 3 C  s              99.4       0.1       0.0       0.0       0.1       4.1
 3 C  px              0.0       0.0       0.1       0.0       0.1       0.1
 3 C  py              0.0       0.1       0.0       0.0       0.0       1.0
 4 C  s               0.0       0.0       0.0      12.0       0.9       9.2
 4 C  pz              0.0       0.0       0.0       7.6       1.5       2.6
 4 C  px              0.0       0.0       0.0       2.7       0.1       4.5
 4 C  py              0.0       0.0       0.0       0.4       1.9       0.7
 4 C  dz2             0.0       0.0       0.0       0.5       0.0       0.1
 4 C  dxz             0.0       0.0       0.0       0.9       0.0       0.0
 4 C  dyz             0.0       0.0       0.0       0.2       0.0       0.0
 4 C  dxy             0.0       0.0       0.0       0.0       0.0       0.1
 5 C  s               0.0       0.0      99.5       0.0       1.2       2.2
 5 C  pz              0.0       0.0       0.0       0.0       0.0       0.1
 5 C  px              0.1       0.0       0.0       0.0       1.2       0.1
 5 C  py              0.0       0.0       0.0       0.1       0.5       0.7
 6 C  s               0.0       0.0       0.0       0.8      18.4       1.1
 6 C  pz              0.0       0.0       0.0       0.3       2.6       0.7
 6 C  px              0.0       0.0       0.1       0.0       9.6       2.6
 6 C  py              0.0       0.0       0.1       0.8       0.0       0.6
 6 C  dxz             0.0       0.0       0.0       0.0       1.0       0.0
 6 C  dx2y2           0.0       0.0       0.0       0.0       0.7       0.1
 7 H  s               0.0       0.1       0.0       0.0       0.0       1.1
 8 H  s               0.0       0.0       0.0       0.0       0.0       2.3
 8 H  px              0.0       0.0       0.0       0.0       0.0       0.1
 9 H  s               0.0       0.0       0.0       0.1       0.0       2.7
 9 H  py              0.0       0.0       0.0       0.0       0.0       0.1
10 H  s               0.1       0.0       0.0       0.0       0.0       0.6
11 H  s               0.0       0.0       0.1       0.0       0.2       0.2
12 O  s               0.0       0.0       0.0       0.2      53.2       1.5
12 O  pz              0.0       0.0       0.0       0.0       1.1       0.0
12 O  px              0.0       0.0       0.0       0.0       3.7       0.0
12 O  dxz             0.0       0.0       0.0       0.0       0.1       0.0
13 O  s               0.0       0.0       0.0      54.6       0.8       1.6
13 O  pz              0.0       0.0       0.0       1.5       0.0       1.5
13 O  px              0.0       0.0       0.0       0.3       0.0       1.0
13 O  py              0.0       0.0       0.0       1.0       0.0       0.2
14 H  s               0.0       0.0       0.0      10.4       0.1       1.2
14 H  pz              0.0       0.0       0.0       0.6       0.0       0.0
14 H  px              0.0       0.0       0.0       0.9       0.0       0.1
14 H  py              0.0       0.0       0.0       1.8       0.0       0.2

                     12        13        14        15        16        17   
                  -1.05284  -1.00827  -0.92410  -0.87179  -0.83469  -0.76597
                   2.00000   2.00000   2.00000   2.00000   2.00000   2.00000
                  --------  --------  --------  --------  --------  --------
 0 C  s               5.2      12.9       6.0       3.4       0.0       2.9
 0 C  pz              0.0       0.3       0.2       0.0       0.4       0.0
 0 C  px              0.2       0.0       0.1       0.2       0.0       0.2
 0 C  py              5.2       0.4       2.5       3.2       7.9       0.9
 0 C  dx2y2           0.0       0.1       0.0       0.0       0.0       0.0
 0 C  dxy             0.1       0.0       0.0       0.0       0.0       0.0
 1 C  s               1.6      10.8       2.3       1.2       6.6       1.5
 1 C  pz              0.3       0.3       0.7       0.9       0.0       2.2
 1 C  px              2.5       0.9       1.6       3.5       3.6       0.1
 1 C  py              1.4       0.7       2.5       1.6       0.2       7.2
 1 C  dx2y2           0.1       0.0       0.1       0.1       0.0       0.0
 2 C  s               7.6       0.0       2.6       4.4       3.1       0.2
 2 C  pz              0.3       0.1       0.3       0.0       0.2       1.3
 2 C  px              0.0       6.9       3.0       0.6       5.8       4.6
 2 C  py              0.1       0.7       0.4       1.3       0.2       3.9
 2 C  dx2y2           0.0       0.1       0.0       0.0       0.1       0.1
 2 C  dxy             0.0       0.2       0.0       0.0       0.1       0.0
 3 C  s              19.8       1.6       3.3       4.6       3.2       3.5
 3 C  pz              0.4       0.3       0.7       0.2       0.5       0.1
 3 C  px              1.1       2.4       3.0       0.8       2.1       0.1
 3 C  py              0.1       2.3       1.8       3.9       0.4       4.4
 3 C  dxz             0.1       0.0       0.0       0.1       0.0       0.0
 3 C  dx2y2           0.0       0.1       0.1       0.0       0.1       0.0
 4 C  s               0.8      11.2       2.2       2.1       1.2       0.1
 4 C  pz              0.2       1.0       2.6       0.4       9.6       2.8
 4 C  px              0.3       0.0       0.8       0.6       1.3       4.5
 4 C  py              5.8       0.9       2.5      16.4       0.2       3.4
 4 C  dz2             0.0       0.0       0.1       0.0       0.1       0.0
 4 C  dyz             0.0       0.0       0.1       0.0       0.3       0.0
 4 C  dx2y2           0.0       0.2       0.0       0.0       0.0       0.1
 4 C  dxy             0.0       0.0       0.1       0.0       0.2       0.0
 5 C  s              17.5       2.6       4.1       5.1       4.3       0.1
 5 C  pz              0.7       0.0       0.3       0.1       0.4       1.6
 5 C  px              0.7       1.5       2.3       2.7       2.4       5.2
 5 C  py              1.4       0.6       0.2       1.3       0.3       0.5
 5 C  dxz             0.1       0.0       0.0       0.1       0.0       0.0
 5 C  dxy             0.0       0.1       0.1       0.1       0.1       0.1
 6 C  s               3.4       4.8       2.9       2.3       0.4       1.0
 6 C  pz              0.7       2.0       0.1       2.8       0.1       0.9
 6 C  px              5.5       4.3       3.0       0.1       0.9       1.8
 6 C  py              1.7       1.1       1.1       7.4       7.4       2.0
 6 C  dyz             0.0       0.1       0.0       0.2       0.0       0.0
 6 C  dx2y2           0.0       0.2       0.0       0.3       0.0       0.0
 6 C  dxy             0.1       0.0       0.0       0.0       0.1       0.0
 7 H  s               1.0       3.2       2.1       1.5       0.0       1.7
 7 H  pz              0.0       0.1       0.1       0.1       0.0       0.1
 7 H  px              0.1       0.2       0.1       0.1       0.0       0.1
 8 H  s               0.3       2.8       0.9       0.6       5.1       3.3
 8 H  px              0.0       0.1       0.1       0.0       0.2       0.2
[...]
   N(occ)=  1.97426 1.92977 1.93431 0.09967 0.03435 0.02765
   ||g|| =     1.616510e+00 Max(G)=   -5.607651e-01 Rot=32,13
   --- Orbital Update [SuperCI(PT)]
   --- Canonicalize Internal Space
   --- Canonicalize External Space
   --- SX_PT (Skipped TA=0 IT=0): ||X|| =      5.771577801 Max(X)(29,28) =     -2.269211608 
   --- SFit(Active Orbitals)

MACRO-ITERATION 126: 
   --- Inactive Energy E0 = -410.24452282 Eh
CI-ITERATION   0: 
  -417.175609642   0.000000000000 (    0.00)
   CI-PROBLEM SOLVED
   DENSITIES MADE
   E(CAS)=  -417.175609642 Eh DE=    5.511752e-02
   --- Energy gap subspaces: Ext-Act = -0.334   Act-Int = 0.121
   --- current l-shift: Up(Ext-Act) = 0.93   Dn(Act-Int) = 0.48
   N(occ)=  1.97598 1.92260 1.90750 0.13265 0.03606 0.02521
   ||g|| =     1.664210e+00 Max(G)=   -5.940785e-01 Rot=32,13
   --- Orbital Update [SuperCI(PT)]
   --- Canonicalize Internal Space
   --- Canonicalize External Space
   --- SX_PT (Skipped TA=0 IT=0): ||X|| =      5.652812030 Max(X)(31,28) =     -2.892931694 
   --- SFit(Active Orbitals)

MACRO-ITERATION 127: 
   --- Inactive Energy E0 = -410.21976705 Eh
CI-ITERATION   0: 
  -417.181169292   0.000000000000 (    0.00)
   CI-PROBLEM SOLVED
   DENSITIES MADE
   E(CAS)=  -417.181169292 Eh DE=   -5.559650e-03
   --- Energy gap subspaces: Ext-Act = -0.331   Act-Int = 0.104
   --- current l-shift: Up(Ext-Act) = 0.93   Dn(Act-Int) = 0.50
   N(occ)=  1.97762 1.93199 1.87819 0.14981 0.03896 0.02344
   ||g|| =     1.653276e+00 Max(G)=   -5.831258e-01 Rot=32,13
   --- Orbital Update [SuperCI(PT)]
   --- Canonicalize Internal Space
   --- Canonicalize External Space
   --- SX_PT (Skipped TA=0 IT=0): ||X|| =      6.592146908 Max(X)(31,28) =     -3.836774673 
   --- SFit(Active Orbitals)

MACRO-ITERATION 128: 
   --- Inactive Energy E0 = -410.17626550 Eh
CI-ITERATION   0: 
  -417.201072429   0.000000000000 (    0.00)
   CI-PROBLEM SOLVED
   DENSITIES MADE
   E(CAS)=  -417.201072429 Eh DE=   -1.990314e-02
   --- Energy gap subspaces: Ext-Act = -0.347   Act-Int = 0.096
   --- current l-shift: Up(Ext-Act) = 0.95   Dn(Act-Int) = 0.50
   N(occ)=  1.97776 1.93872 1.89138 0.13074 0.03891 0.02249
   ||g|| =     1.664828e+00 Max(G)=   -5.831862e-01 Rot=32,13
   --- Orbital Update [SuperCI(PT)]
   --- Canonicalize Internal Space
   --- Canonicalize External Space
   --- SX_PT (Skipped TA=0 IT=0): ||X|| =      5.899429376 Max(X)(31,28) =     -3.769369715 
   --- SFit(Active Orbitals)

MACRO-ITERATION 129: 
   --- Inactive Energy E0 = -410.22698955 Eh
CI-ITERATION   0: 
  -417.203697350   0.000000000000 (    0.00)
   CI-PROBLEM SOLVED
   DENSITIES MADE
   E(CAS)=  -417.203697350 Eh DE=   -2.624921e-03
   --- Energy gap subspaces: Ext-Act = -0.337   Act-Int = 0.116
   --- current l-shift: Up(Ext-Act) = 0.94   Dn(Act-Int) = 0.48
   N(occ)=  1.97971 1.92181 1.88543 0.14380 0.04550 0.02375
   ||g|| =     1.695903e+00 Max(G)=   -5.858987e-01 Rot=32,13
   --- Orbital Update [SuperCI(PT)]
   --- Canonicalize Internal Space
   --- Canonicalize External Space
   --- SX_PT (Skipped TA=0 IT=0): ||X|| =      6.183721746 Max(X)(31,28) =     -3.479043216 
   --- SFit(Active Orbitals)

MACRO-ITERATION 130: 
   --- Inactive Energy E0 = -409.68885030 Eh
CI-ITERATION   0: 
  -417.123593250   0.000000000000 (    0.00)
   CI-PROBLEM SOLVED
   DENSITIES MADE
   E(CAS)=  -417.123593250 Eh DE=    8.010410e-02
   --- Energy gap subspaces: Ext-Act = -0.500   Act-Int = 0.112
   --- current l-shift: Up(Ext-Act) = 1.10   Dn(Act-Int) = 0.49
   N(occ)=  1.98787 1.92725 1.86614 0.15716 0.04492 0.01666
   ||g|| =     2.007686e+00 Max(G)=   -5.528467e-01 Rot=32,13
   --- Orbital Update [SuperCI(PT)]
   --- Canonicalize Internal Space
   --- Canonicalize External Space
   --- SX_PT (Skipped TA=0 IT=0): ||X|| =     50.953465927 Max(X)(31,25) =     40.834551384 
   --- SFit(Active Orbitals)

MACRO-ITERATION 131: 
   --- Inactive Energy E0 = -409.49807699 Eh
CI-ITERATION   0: 
  -417.056681929   0.000000000000 (    0.00)
   CI-PROBLEM SOLVED
   DENSITIES MADE
   E(CAS)=  -417.056681929 Eh DE=    6.691132e-02
   --- Energy gap subspaces: Ext-Act = -0.510   Act-Int = 0.085
   --- current l-shift: Up(Ext-Act) = 1.11   Dn(Act-Int) = 0.52
   N(occ)=  1.98430 1.93648 1.89689 0.12553 0.03851 0.01829
   ||g|| =     2.172443e+00 Max(G)=   -5.649870e-01 Rot=32,13
   --- Orbital Update [SuperCI(PT)]
   --- Canonicalize Internal Space
   --- Canonicalize External Space
   --- SX_PT (Skipped TA=0 IT=0): ||X|| =     16.250640796 Max(X)(41,33) =      5.500525173 
   --- SFit(Active Orbitals)

MACRO-ITERATION 132: 
   --- Inactive Energy E0 = -409.50234764 Eh
CI-ITERATION   0: 
  -417.050929537   0.000000000000 (    0.00)
   CI-PROBLEM SOLVED
   DENSITIES MADE
   E(CAS)=  -417.050929537 Eh DE=    5.752392e-03
   --- Energy gap subspaces: Ext-Act = -0.507   Act-Int = 0.082
   --- current l-shift: Up(Ext-Act) = 1.11   Dn(Act-Int) = 0.52
   N(occ)=  1.98288 1.93335 1.89036 0.13397 0.04136 0.01807
   ||g|| =     2.166472e+00 Max(G)=   -5.449800e-01 Rot=32,13
   --- Orbital Update [SuperCI(PT)]
   --- Canonicalize Internal Space
   --- Canonicalize External Space
   --- SX_PT (Skipped TA=0 IT=0): ||X|| =     16.133230831 Max(X)(41,33) =      5.482957307 
   --- SFit(Active Orbitals)

MACRO-ITERATION 133: 
   --- Inactive Energy E0 = -409.32133038 Eh
CI-ITERATION   0: 
  -417.033320702   0.000000000000 (    0.00)
   CI-PROBLEM SOLVED
   DENSITIES MADE
   E(CAS)=  -417.033320702 Eh DE=    1.760884e-02
   --- Energy gap subspaces: Ext-Act = -0.488   Act-Int = 0.058
   --- current l-shift: Up(Ext-Act) = 1.09   Dn(Act-Int) = 0.54
   N(occ)=  1.99058 1.94252 1.85242 0.14463 0.05119 0.01865
   ||g|| =     2.337211e+00 Max(G)=   -5.619510e-01 Rot=32,13
   --- Orbital Update [SuperCI(PT)]
   --- Canonicalize Internal Space
   --- Canonicalize External Space
   --- SX_PT (Skipped TA=0 IT=0): ||X|| =     17.956281954 Max(X)(54,33) =      3.728891015 
   --- SFit(Active Orbitals)

MACRO-ITERATION 134: 
   --- Inactive Energy E0 = -409.20399914 Eh
CI-ITERATION   0: 
  -417.039257309   0.000000000000 (    0.00)
   CI-PROBLEM SOLVED
   DENSITIES MADE
   E(CAS)=  -417.039257309 Eh DE=   -5.936607e-03
   --- Energy gap subspaces: Ext-Act = -0.512   Act-Int = -0.010
   --- current l-shift: Up(Ext-Act) = 1.11   Dn(Act-Int) = 0.61
   N(occ)=  1.98798 1.95868 1.87542 0.11987 0.04183 0.01622
   ||g|| =     2.080889e+00 Max(G)=    4.988831e-01 Rot=32,28
   --- Orbital Update [SuperCI(PT)]
   --- Canonicalize Internal Space
   --- Canonicalize External Space
   --- SX_PT (Skipped TA=0 IT=0): ||X|| =     24.700696160 Max(X)(31,28) =     12.534291756 
   --- SFit(Active Orbitals)

MACRO-ITERATION 135: 
   --- Inactive Energy E0 = -408.87689093 Eh
CI-ITERATION   0: 
  -416.982293241   0.000000000000 (    0.00)
   CI-PROBLEM SOLVED
   DENSITIES MADE
   E(CAS)=  -416.982293241 Eh DE=    5.696407e-02
   --- Energy gap subspaces: Ext-Act = -0.479   Act-Int = -0.076
   --- current l-shift: Up(Ext-Act) = 1.08   Dn(Act-Int) = 0.68
   N(occ)=  1.98470 1.97098 1.85545 0.12865 0.04319 0.01704
   ||g|| =     2.571949e+00 Max(G)=   -6.599477e-01 Rot=32,6
   --- Orbital Update [SuperCI(PT)]
   --- Canonicalize Internal Space
   --- Canonicalize External Space
   --- SX_PT (Skipped TA=0 IT=0): ||X|| =     29.543127903 Max(X)(31,28) =    -10.236343278 
   --- SFit(Active Orbitals)

MACRO-ITERATION 136: 
   --- Inactive Energy E0 = -408.73251882 Eh
CI-ITERATION   0: 
  -416.978240925   0.000000000000 (    0.00)
   CI-PROBLEM SOLVED
   DENSITIES MADE
   E(CAS)=  -416.978240925 Eh DE=    4.052316e-03
   --- Energy gap subspaces: Ext-Act = -0.491   Act-Int = -0.095
   --- current l-shift: Up(Ext-Act) = 1.09   Dn(Act-Int) = 0.69
   N(occ)=  1.98235 1.96615 1.83240 0.13806 0.06114 0.01989
   ||g|| =     2.713349e+00 Max(G)=   -8.538950e-01 Rot=32,6
   --- Orbital Update [SuperCI(PT)]
   --- Canonicalize Internal Space
   --- Canonicalize External Space
   --- SX_PT (Skipped TA=0 IT=0): ||X|| =     24.850707819 Max(X)(38,33) =     -4.809236462 
   --- SFit(Active Orbitals)

MACRO-ITERATION 137: 
   --- Inactive Energy E0 = -408.80564799 Eh
CI-ITERATION   0: 
  -416.753408667   0.000000000000 (    0.00)
   CI-PROBLEM SOLVED
   DENSITIES MADE
   E(CAS)=  -416.753408667 Eh DE=    2.248323e-01
   --- Energy gap subspaces: Ext-Act = -0.456   Act-Int = -0.065
   --- current l-shift: Up(Ext-Act) = 1.06   Dn(Act-Int) = 0.66
   N(occ)=  1.97499 1.94546 1.88811 0.09061 0.07232 0.02850
   ||g|| =     3.272272e+00 Max(G)=   -1.215561e+00 Rot=32,6
   --- Orbital Update [SuperCI(PT)]
   --- Canonicalize Internal Space
   --- Canonicalize External Space
   --- SX_PT (Skipped TA=0 IT=0): ||X|| =     51.137358430 Max(X)(41,32) =     12.182740295 
   --- SFit(Active Orbitals)

MACRO-ITERATION 138: 
   --- Inactive Energy E0 = -408.83432887 Eh
CI-ITERATION   0: 
  -416.517376914   0.000000000000 (    0.00)
   CI-PROBLEM SOLVED
   DENSITIES MADE
   E(CAS)=  -416.517376914 Eh DE=    2.360318e-01
   --- Energy gap subspaces: Ext-Act = -0.468   Act-Int = -0.003
   --- current l-shift: Up(Ext-Act) = 1.07   Dn(Act-Int) = 0.60
   N(occ)=  1.96219 1.91974 1.84037 0.14232 0.10403 0.03136
   ||g|| =     3.918518e+00 Max(G)=   -1.531791e+00 Rot=32,6
   --- Orbital Update [SuperCI(PT)]
   --- Canonicalize Internal Space
   --- Canonicalize External Space
   --- SX_PT (Skipped TA=0 IT=0): ||X|| =    115.139537752 Max(X)(46,32) =    -27.709150536 
   --- SFit(Active Orbitals)

MACRO-ITERATION 139: 
   --- Inactive Energy E0 = -408.90065794 Eh
CI-ITERATION   0: 
  -416.450608640   0.000000000000 (    0.00)
   CI-PROBLEM SOLVED
   DENSITIES MADE
   E(CAS)=  -416.450608640 Eh DE=    6.676827e-02
   --- Energy gap subspaces: Ext-Act = -0.460   Act-Int = 0.041
   --- current l-shift: Up(Ext-Act) = 1.06   Dn(Act-Int) = 0.56
   N(occ)=  1.96599 1.90114 1.83152 0.17171 0.10164 0.02801
   ||g|| =     4.223248e+00 Max(G)=   -1.802561e+00 Rot=32,6
   --- Orbital Update [SuperCI(PT)]
   --- Canonicalize Internal Space
   --- Canonicalize External Space
   --- SX_PT (Skipped TA=0 IT=0): ||X|| =    142.254081109 Max(X)(46,32) =    -36.868057560 
   --- SFit(Active Orbitals)

MACRO-ITERATION 140: 
   --- Inactive Energy E0 = -408.71029180 Eh
CI-ITERATION   0: 
  -416.266374562   0.000000000000 (    0.00)
   CI-PROBLEM SOLVED
   DENSITIES MADE
   E(CAS)=  -416.266374562 Eh DE=    1.842341e-01
   --- Energy gap subspaces: Ext-Act = -0.458   Act-Int = 0.038
   --- current l-shift: Up(Ext-Act) = 1.06   Dn(Act-Int) = 0.56
   N(occ)=  1.95745 1.87350 1.81092 0.22186 0.10788 0.02838
   ||g|| =     4.705271e+00 Max(G)=   -2.018321e+00 Rot=32,6
   --- Orbital Update [SuperCI(PT)]
   --- Canonicalize Internal Space
   --- Canonicalize External Space
   --- SX_PT (Skipped TA=0 IT=0): ||X|| =    149.582450569 Max(X)(35,32) =    -28.814176449 
   --- SFit(Active Orbitals)

MACRO-ITERATION 141: 
   --- Inactive Energy E0 = -408.73305842 Eh
CI-ITERATION   0: 
  -416.223025552   0.000000000000 (    0.00)
   CI-PROBLEM SOLVED
   DENSITIES MADE
   E(CAS)=  -416.223025552 Eh DE=    4.334901e-02
   --- Energy gap subspaces: Ext-Act = -0.478   Act-Int = 0.073
   --- current l-shift: Up(Ext-Act) = 1.08   Dn(Act-Int) = 0.53
   N(occ)=  1.97000 1.86426 1.81092 0.22565 0.10310 0.02606
   ||g|| =     4.819375e+00 Max(G)=   -2.106464e+00 Rot=32,6
   --- Orbital Update [SuperCI(PT)]
   --- Canonicalize Internal Space
   --- Canonicalize External Space
   --- SX_PT (Skipped TA=0 IT=0): ||X|| =    128.047378213 Max(X)(35,32) =    -25.132153863 
   --- SFit(Active Orbitals)

MACRO-ITERATION 142: 
   --- Inactive Energy E0 = -408.75769662 Eh
CI-ITERATION   0: 
  -416.238494258   0.000000000000 (    0.00)
   CI-PROBLEM SOLVED
   DENSITIES MADE
   E(CAS)=  -416.238494258 Eh DE=   -1.546871e-02
   --- Energy gap subspaces: Ext-Act = -0.481   Act-Int = 0.078
   --- current l-shift: Up(Ext-Act) = 1.08   Dn(Act-Int) = 0.52
   N(occ)=  1.96112 1.86750 1.80868 0.21630 0.11771 0.02870
   ||g|| =     4.771558e+00 Max(G)=   -2.062197e+00 Rot=32,6
   --- Orbital Update [SuperCI(PT)]
   --- Canonicalize Internal Space
   --- Canonicalize External Space
   --- SX_PT (Skipped TA=0 IT=0): ||X|| =    143.962096675 Max(X)(35,32) =    -21.775617136 
   --- SFit(Active Orbitals)

MACRO-ITERATION 143: 
   --- Inactive Energy E0 = -408.74383415 Eh
CI-ITERATION   0: 
  -416.242805738   0.000000000000 (    0.00)
   CI-PROBLEM SOLVED
   DENSITIES MADE
   E(CAS)=  -416.242805738 Eh DE=   -4.311480e-03
   --- Energy gap subspaces: Ext-Act = -0.489   Act-Int = 0.073
   --- current l-shift: Up(Ext-Act) = 1.09   Dn(Act-Int) = 0.53
   N(occ)=  1.96145 1.85887 1.81243 0.22129 0.11712 0.02884
   ||g|| =     4.838814e+00 Max(G)=   -2.180667e+00 Rot=32,6
   --- Orbital Update [SuperCI(PT)]
   --- Canonicalize Internal Space
   --- Canonicalize External Space
   --- SX_PT (Skipped TA=0 IT=0): ||X|| =    162.139449709 Max(X)(35,32) =    -25.661478129 
   --- SFit(Active Orbitals)

MACRO-ITERATION 144: 
   --- Inactive Energy E0 = -408.80731209 Eh
CI-ITERATION   0: 
  -416.225057096   0.000000000000 (    0.00)
   CI-PROBLEM SOLVED
   DENSITIES MADE
   E(CAS)=  -416.225057096 Eh DE=    1.774864e-02
   --- Energy gap subspaces: Ext-Act = -0.469   Act-Int = 0.132
   --- current l-shift: Up(Ext-Act) = 1.07   Dn(Act-Int) = 0.47
   N(occ)=  1.95447 1.84191 1.78429 0.25733 0.13034 0.03166
   ||g|| =     4.903800e+00 Max(G)=   -2.086136e+00 Rot=32,6
   --- Orbital Update [SuperCI(PT)]
   --- Canonicalize Internal Space
   --- Canonicalize External Space
   --- SX_PT (Skipped TA=0 IT=0): ||X|| =    210.435026137 Max(X)(35,32) =    -36.779089729 
   --- SFit(Active Orbitals)

MACRO-ITERATION 145: 
   --- Inactive Energy E0 = -407.99405055 Eh
CI-ITERATION   0: 
  -415.516201840   0.000000000000 (    0.00)
   CI-PROBLEM SOLVED
   DENSITIES MADE
   E(CAS)=  -415.516201840 Eh DE=    7.088553e-01
   --- Energy gap subspaces: Ext-Act = -0.581   Act-Int = -0.071
   --- current l-shift: Up(Ext-Act) = 1.18   Dn(Act-Int) = 0.67
   N(occ)=  1.95647 1.92310 1.69143 0.23499 0.12069 0.07331
   ||g|| =     6.337439e+00 Max(G)=   -1.596888e+00 Rot=32,6
   --- Orbital Update [SuperCI(PT)]
   --- Canonicalize Internal Space
   --- Canonicalize External Space
   --- SX_PT (Skipped TA=0 IT=0): ||X|| =    429.641728018 Max(X)(35,32) =    -97.746444419 
   --- SFit(Active Orbitals)

MACRO-ITERATION 146: 
   --- Inactive Energy E0 = -406.47509041 Eh
CI-ITERATION   0: 
  -415.089568518   0.000000000000 (    0.00)
   CI-PROBLEM SOLVED
   DENSITIES MADE
   E(CAS)=  -415.089568518 Eh DE=    4.266333e-01
   --- Energy gap subspaces: Ext-Act = -0.739   Act-Int = -0.199
   --- current l-shift: Up(Ext-Act) = 1.34   Dn(Act-Int) = 0.80
   N(occ)=  1.87712 1.92268 1.77226 0.21569 0.15330 0.05895
   ||g|| =     7.073654e+00 Max(G)=   -1.219514e+00 Rot=32,6
   --- Orbital Update [SuperCI(PT)]
   --- Canonicalize Internal Space
   --- Canonicalize External Space
   --- SX_PT (Skipped TA=0 IT=0): ||X|| =   1503.283703218 Max(X)(31,26) =   -259.835674616 
   --- SFit(Active Orbitals)

MACRO-ITERATION 147: 
   --- Inactive Energy E0 = -406.14112408 Eh
CI-ITERATION   0: 
  -414.704833306   0.000000000000 (    0.00)
   CI-PROBLEM SOLVED
   DENSITIES MADE
   E(CAS)=  -414.704833306 Eh DE=    3.847352e-01
   --- Energy gap subspaces: Ext-Act = -0.597   Act-Int = -0.105
   --- current l-shift: Up(Ext-Act) = 1.20   Dn(Act-Int) = 0.71
   N(occ)=  1.70834 1.94261 1.80913 0.15442 0.17202 0.21348
   ||g|| =     8.316874e+00 Max(G)=   -1.617445e+00 Rot=32,6
   --- Orbital Update [SuperCI(PT)]
   --- Canonicalize Internal Space
   --- Canonicalize External Space
   --- SX_PT (Skipped TA=0 IT=0): ||X|| =   2554.058593644 Max(X)(35,33) =   -567.106115149 
   --- SFit(Active Orbitals)

MACRO-ITERATION 148: 
   --- Inactive Energy E0 = -404.97952162 Eh
CI-ITERATION   0: 
  -414.264660990   0.000000000000 (    0.00)
   CI-PROBLEM SOLVED
   DENSITIES MADE
   E(CAS)=  -414.264660990 Eh DE=    4.401723e-01
   --- Energy gap subspaces: Ext-Act = -0.507   Act-Int = -0.173
   --- current l-shift: Up(Ext-Act) = 1.11   Dn(Act-Int) = 0.77
   N(occ)=  1.58781 1.95153 1.76570 0.15886 0.18555 0.35055
   ||g|| =     9.530703e+00 Max(G)=   -1.487174e+00 Rot=32,6
   --- Orbital Update [SuperCI(PT)]
   --- Canonicalize Internal Space
   --- Canonicalize External Space
   --- SX_PT (Skipped TA=0 IT=0): ||X|| =   4705.476516915 Max(X)(85,33) =    624.764687430 
   --- SFit(Active Orbitals)

MACRO-ITERATION 149: 
   --- Inactive Energy E0 = -404.91207721 Eh
CI-ITERATION   0: 
  -414.346450638   0.000000000000 (    0.00)
   CI-PROBLEM SOLVED
   DENSITIES MADE
   E(CAS)=  -414.346450638 Eh DE=   -8.178965e-02
   --- Energy gap subspaces: Ext-Act = -0.463   Act-Int = -0.113
   --- current l-shift: Up(Ext-Act) = 1.06   Dn(Act-Int) = 0.71
   N(occ)=  1.52622 1.95071 1.79399 0.10128 0.20807 0.41974
   ||g|| =     9.689848e+00 Max(G)=    1.523511e+00 Rot=33,6
   --- Orbital Update [SuperCI(PT)]
   --- Canonicalize Internal Space
   --- Canonicalize External Space
   --- SX_PT (Skipped TA=0 IT=0): ||X|| =   3440.239724789 Max(X)(57,33) =    415.286075849 
   --- SFit(Active Orbitals)

MACRO-ITERATION 150: 
   --- Inactive Energy E0 = -404.49522894 Eh
CI-ITERATION   0: 
  -414.022603260   0.000000000000 (    0.00)
   CI-PROBLEM SOLVED
   DENSITIES MADE
   E(CAS)=  -414.022603260 Eh DE=    3.238474e-01
   --- Energy gap subspaces: Ext-Act = -0.519   Act-Int = -0.343
   --- current l-shift: Up(Ext-Act) = 1.12   Dn(Act-Int) = 0.94
   N(occ)=  1.47183 1.95241 1.81146 0.09845 0.23832 0.42752
   ||g|| =     1.035626e+01 Max(G)=    1.555275e+00 Rot=29,6
   --- Orbital Update [SuperCI(PT)]
   --- Canonicalize Internal Space
   --- Canonicalize External Space
   --- SX_PT (Skipped TA=0 IT=0): ||X|| =   5614.639289153 Max(X)(51,34) =    813.303134724 
   --- SFit(Active Orbitals)

MACRO-ITERATION 151: 
   --- Inactive Energy E0 = -403.96632090 Eh
CI-ITERATION   0: 
  -413.704619389   0.000000000000 (    0.00)
   CI-PROBLEM SOLVED
   DENSITIES MADE
   E(CAS)=  -413.704619389 Eh DE=    3.179839e-01
   --- Energy gap subspaces: Ext-Act = -0.450   Act-Int = -0.377
   --- current l-shift: Up(Ext-Act) = 1.05   Dn(Act-Int) = 0.98
   N(occ)=  1.40555 1.93778 1.77390 0.11832 0.29703 0.46742
   ||g|| =     1.105553e+01 Max(G)=   -1.771525e+00 Rot=32,0
   --- Orbital Update [SuperCI(PT)]
   --- Canonicalize Internal Space
   --- Canonicalize External Space
   --- SX_PT (Skipped TA=0 IT=0): ||X|| =   4111.805700897 Max(X)(36,34) =   -690.915669925 
   --- SFit(Active Orbitals)

MACRO-ITERATION 152: 
   --- Inactive Energy E0 = -403.68763507 Eh
CI-ITERATION   0: 
  -413.347812894   0.000000000000 (    0.00)
   CI-PROBLEM SOLVED
   DENSITIES MADE
   E(CAS)=  -413.347812894 Eh DE=    3.568065e-01
   --- Energy gap subspaces: Ext-Act = -0.140   Act-Int = -0.121
   --- current l-shift: Up(Ext-Act) = 0.74   Dn(Act-Int) = 0.72
   N(occ)=  1.13711 1.68730 1.48989 0.53672 0.55965 0.58932
   ||g|| =     1.276676e+01 Max(G)=   -2.150838e+00 Rot=32,0
   --- Orbital Update [SuperCI(PT)]
   --- Canonicalize Internal Space
   --- Canonicalize External Space
   --- SX_PT (Skipped TA=0 IT=0): ||X|| =   7096.361647790 Max(X)(86,29) =   1229.044347853 
   --- SFit(Active Orbitals)

MACRO-ITERATION 153: 
   --- Inactive Energy E0 = -401.12292447 Eh
CI-ITERATION   0: 
  -413.350884786   0.000000000000 (    0.00)
   CI-PROBLEM SOLVED
   DENSITIES MADE
   E(CAS)=  -413.350884786 Eh DE=   -3.071892e-03
   --- Energy gap subspaces: Ext-Act = 0.028   Act-Int = -0.349
   --- current l-shift: Up(Ext-Act) = 0.57   Dn(Act-Int) = 0.95
   N(occ)=  1.02507 1.76776 1.30977 0.89878 0.42926 0.56937
   ||g|| =     1.308573e+01 Max(G)=    2.832442e+00 Rot=33,0
   --- Orbital Update [SuperCI(PT)]
   --- Canonicalize Internal Space
   --- Canonicalize External Space
   --- SX_PT (Skipped TA=0 IT=0): ||X|| =   9974.320125559 Max(X)(39,29) =   2004.779630584 
   --- SFit(Active Orbitals)

MACRO-ITERATION 154: 
